# vtk DataFile Version 2.0
material
ASCII
DATASET UNSTRUCTURED_GRID
POINTS 68 float
46.000000000000000 69.000000000000000 0.000000000000000
160.000000000000000 84.000000000000000 0.000000000000000
156.000000000000000 122.000000000000000 0.000000000000000
42.000000000000000 107.000000000000000 0.000000000000000
99.000000000000000 167.000000000000000 0.000000000000000
210.000000000000000 170.000000000000000 0.000000000000000
209.000000000000000 208.000000000000000 0.000000000000000
98.000000000000000 205.000000000000000 0.000000000000000
0.000000000000000 0.000000000000000 0.000000000000000
256.000000000000000 0.000000000000000 0.000000000000000
256.000000000000000 256.000000000000000 0.000000000000000
0.000000000000000 256.000000000000000 0.000000000000000
83.999999999925365 73.999999999990180 0.000000000000000
121.999999999962796 78.999999999995097 0.000000000000000
118.000000000000099 117.000000000000000 0.000000000000000
79.999999999999986 112.000000000000000 0.000000000000000
135.999999999774388 167.999999999993889 0.000000000000000
172.999999999650498 168.999999999990592 0.000000000000000
172.000000000345807 207.000000000009408 0.000000000000000
135.000000000218108 206.000000000005912 0.000000000000000
42.666666666578273 0.000000000000000 0.000000000000000
85.333333333120507 0.000000000000000 0.000000000000000
127.999999999665505 0.000000000000000 0.000000000000000
170.666666666441813 0.000000000000000 0.000000000000000
213.333333333220907 0.000000000000000 0.000000000000000
256.000000000000000 42.666666666578273 0.000000000000000
256.000000000000000 85.333333333120507 0.000000000000000
256.000000000000000 127.999999999665505 0.000000000000000
256.000000000000000 170.666666666441813 0.000000000000000
256.000000000000000 213.333333333220907 0.000000000000000
213.333333333274112 256.000000000000000 0.000000000000000
170.666666666903495 256.000000000000000 0.000000000000000
128.000000000527308 256.000000000000000 0.000000000000000
85.333333333688586 256.000000000000000 0.000000000000000
42.666666666844293 256.000000000000000 0.000000000000000
0.000000000000000 213.333333333274112 0.000000000000000
0.000000000000000 170.666666666903495 0.000000000000000
0.000000000000000 128.000000000527308 0.000000000000000
0.000000000000000 85.333333333688586 0.000000000000000
0.000000000000000 42.666666666844293 0.000000000000000
116.986851456887905 186.486496090970689 0.000000000000000
191.013148543172207 188.513503909030788 0.000000000000000
154.000000000008100 187.500000000000199 0.000000000000000
62.220445255619083 179.762405653664104 0.000000000000000
194.081895819828986 105.991554217932205 0.000000000000000
195.284106098408699 67.947935298690496 0.000000000000000
153.611557111882007 43.606190434830829 0.000000000000000
67.329859568129010 142.058019989960087 0.000000000000000
69.323484572141723 38.641517251434543 0.000000000000000
107.044729169449596 39.207951281041773 0.000000000000000
66.587463323173139 220.351834711045598 0.000000000000000
192.278684192548212 140.688684869244611 0.000000000000000
191.000426041910004 31.674061487524181 0.000000000000000
30.156432632725370 192.000000000088789 0.000000000000000
34.388043732987960 35.940294913638112 0.000000000000000
229.909227862783609 107.160042152211602 0.000000000000000
223.044967979193387 137.084491317582604 0.000000000000000
222.600011836102112 36.512380401005743 0.000000000000000
29.833117249746230 226.239863241417112 0.000000000000000
31.084834408340519 152.129415751435801 0.000000000000000
191.352145551820399 231.378611756997714 0.000000000000000
152.148127292442609 230.865067495322990 0.000000000000000
98.665100369251860 136.068801866220298 0.000000000000000
232.483049700693812 194.123273155606910 0.000000000000000
110.844820658341604 229.036150367729107 0.000000000000000
230.274946921482297 230.274946921461208 0.000000000000000
134.313311688313206 139.918831168819906 0.000000000000000
224.831015777654898 75.501452146276350 0.000000000000000
CELLS 110 440
3 1 14 13
3 2 14 1
3 15 12 13
3 14 15 13
3 15 3 12
3 12 3 0
3 7 4 40
3 5 6 41
3 40 16 42
3 19 40 42
3 17 5 41
3 19 7 40
3 16 17 42
3 17 41 42
3 18 19 42
3 41 18 42
3 4 16 40
3 6 18 41
3 47 43 59
3 22 23 46
3 24 9 57
3 45 46 52
3 9 25 57
3 43 53 59
3 39 0 38
3 2 17 66
3 46 23 52
3 45 1 46
3 4 43 47
3 17 2 51
3 50 7 64
3 22 46 49
3 38 0 3
3 0 39 54
3 17 16 66
3 4 47 62
3 21 22 49
3 37 38 3
3 33 50 64
3 51 44 56
3 48 21 49
3 37 3 59
3 20 21 48
3 8 20 54
3 44 55 56
3 4 62 66
3 28 5 56
3 16 4 66
3 39 8 54
3 3 47 59
3 43 50 53
3 5 28 63
3 3 15 47
3 4 7 43
3 25 26 67
3 52 24 57
3 20 48 54
3 2 1 44
3 1 13 46
3 13 12 49
3 12 0 48
3 44 1 45
3 2 44 51
3 53 50 58
3 44 45 67
3 57 25 67
3 46 13 49
3 12 48 49
3 11 35 58
3 43 7 50
3 33 34 50
3 34 11 58
3 27 28 56
3 47 15 62
3 55 44 67
3 5 17 51
3 23 24 52
3 35 36 53
3 32 33 64
3 53 36 59
3 26 27 55
3 48 0 54
3 31 32 61
3 6 63 65
3 60 6 65
3 30 31 60
3 10 30 65
3 29 10 65
3 28 29 63
3 36 37 59
3 6 5 63
3 15 14 62
3 62 14 66
3 18 6 60
3 19 18 61
3 14 2 66
3 5 51 56
3 7 19 64
3 63 29 65
3 30 60 65
3 45 52 57
3 18 60 61
3 50 34 58
3 19 61 64
3 61 32 64
3 55 27 56
3 35 53 58
3 60 31 61
3 26 55 67
3 45 57 67
CELL_TYPES 110
5
5
5
5
5
5
5
5
5
5
5
5
5
5
5
5
5
5
5
5
5
5
5
5
5
5
5
5
5
5
5
5
5
5
5
5
5
5
5
5
5
5
5
5
5
5
5
5
5
5
5
5
5
5
5
5
5
5
5
5
5
5
5
5
5
5
5
5
5
5
5
5
5
5
5
5
5
5
5
5
5
5
5
5
5
5
5
5
5
5
5
5
5
5
5
5
5
5
5
5
5
5
5
5
5
5
5
5
5
5
CELL_DATA 110
SCALARS cell_data int
LOOKUP_TABLE default
4
4
4
4
4
4
2
2
2
2
2
2
2
2
2
2
2
2
1
1
1
1
1
1
1
1
1
1
1
1
1
1
1
1
1
1
1
1
1
1
1
1
1
1
1
1
1
1
1
1
1
1
1
1
1
1
1
1
1
1
1
1
1
1
1
1
1
1
1
1
1
1
1
1
1
1
1
1
1
1
1
1
1
1
1
1
1
1
1
1
1
1
1
1
1
1
1
1
1
1
1
1
1
1
1
1
1
1
1
1
