# vtk DataFile Version 2.0
material
ASCII
DATASET UNSTRUCTURED_GRID
POINTS 7080 float
0.000000000000000 0.000000000000000 0.000000000000000
0.008000000000000 0.000000000000000 0.000000000000000
0.027000000000000 0.000000000000000 0.000000000000000
0.027500000000000 0.000000000000000 0.000000000000000
0.027583000000000 0.000000000000000 0.000000000000000
0.027667000000000 0.000000000000000 0.000000000000000
0.005657000000000 0.005657000000000 0.000000000000000
0.009192000000000 0.009192000000000 0.000000000000000
0.010960000000000 0.010960000000000 0.000000000000000
0.014142000000000 0.014142000000000 0.000000000000000
0.015556000000000 0.015556000000000 0.000000000000000
0.016971000000000 0.016971000000000 0.000000000000000
0.019092000000000 0.019092000000000 0.000000000000000
0.019445000000000 0.019445000000000 0.000000000000000
0.019504000000000 0.019504000000000 0.000000000000000
0.019563000000000 0.019563000000000 0.000000000000000
0.016903000000000 0.001481000000000 0.000000000000000
0.018671000000000 0.003249000000000 0.000000000000000
0.017635000000000 0.000750000000000 0.000000000000000
0.026990000000000 0.000750000000000 0.000000000000000
0.026804000000000 0.003250000000000 0.000000000000000
0.009659000000000 0.002588000000000 0.000000000000000
0.012557000000000 0.003365000000000 0.000000000000000
0.001000000000000 0.000000000000000 0.000000000000000
0.002000000000000 0.000000000000000 0.000000000000000
0.003000000000000 0.000000000000000 0.000000000000000
0.004000000000000 0.000000000000000 0.000000000000000
0.005000000000000 0.000000000000000 0.000000000000000
0.006000000000000 0.000000000000000 0.000000000000000
0.007000000000000 0.000000000000000 0.000000000000000
0.008953000000000 0.000000000000000 0.000000000000000
0.009876000000000 0.000000000000000 0.000000000000000
0.010773000000000 0.000000000000000 0.000000000000000
0.011642000000000 0.000000000000000 0.000000000000000
0.012485000000000 0.000000000000000 0.000000000000000
0.013302000000000 0.000000000000000 0.000000000000000
0.014096000000000 0.000000000000000 0.000000000000000
0.014865000000000 0.000000000000000 0.000000000000000
0.015611000000000 0.000000000000000 0.000000000000000
0.016334000000000 0.000000000000000 0.000000000000000
0.017036000000000 0.000000000000000 0.000000000000000
0.017717000000000 0.000000000000000 0.000000000000000
0.018377000000000 0.000000000000000 0.000000000000000
0.019018000000000 0.000000000000000 0.000000000000000
0.019639000000000 0.000000000000000 0.000000000000000
0.020241000000000 0.000000000000000 0.000000000000000
0.020826000000000 0.000000000000000 0.000000000000000
0.021392000000000 0.000000000000000 0.000000000000000
0.021942000000000 0.000000000000000 0.000000000000000
0.022475000000000 0.000000000000000 0.000000000000000
0.022992000000000 0.000000000000000 0.000000000000000
0.023494000000000 0.000000000000000 0.000000000000000
0.023981000000000 0.000000000000000 0.000000000000000
0.024452000000000 0.000000000000000 0.000000000000000
0.024910000000000 0.000000000000000 0.000000000000000
0.025354000000000 0.000000000000000 0.000000000000000
0.025785000000000 0.000000000000000 0.000000000000000
0.026202000000000 0.000000000000000 0.000000000000000
0.026607000000000 0.000000000000000 0.000000000000000
0.027236000000000 0.000000000000000 0.000000000000000
0.000707000000000 0.000707000000000 0.000000000000000
0.001414000000000 0.001414000000000 0.000000000000000
0.002121000000000 0.002121000000000 0.000000000000000
0.002828000000000 0.002828000000000 0.000000000000000
0.003536000000000 0.003536000000000 0.000000000000000
0.004243000000000 0.004243000000000 0.000000000000000
0.004950000000000 0.004950000000000 0.000000000000000
0.006323000000000 0.006323000000000 0.000000000000000
0.006927000000000 0.006927000000000 0.000000000000000
0.007474000000000 0.007474000000000 0.000000000000000
0.007969000000000 0.007969000000000 0.000000000000000
0.008418000000000 0.008418000000000 0.000000000000000
0.008824000000000 0.008824000000000 0.000000000000000
0.009546000000000 0.009546000000000 0.000000000000000
0.009899000000000 0.009899000000000 0.000000000000000
0.010253000000000 0.010253000000000 0.000000000000000
0.010607000000000 0.010607000000000 0.000000000000000
0.011302000000000 0.011302000000000 0.000000000000000
0.011658000000000 0.011658000000000 0.000000000000000
0.012030000000000 0.012030000000000 0.000000000000000
0.012418000000000 0.012418000000000 0.000000000000000
0.012822000000000 0.012822000000000 0.000000000000000
0.013244000000000 0.013244000000000 0.000000000000000
0.013683000000000 0.013683000000000 0.000000000000000
0.014614000000000 0.014614000000000 0.000000000000000
0.015085000000000 0.015085000000000 0.000000000000000
0.016028000000000 0.016028000000000 0.000000000000000
0.016499000000000 0.016499000000000 0.000000000000000
0.017411000000000 0.017411000000000 0.000000000000000
0.017813000000000 0.017813000000000 0.000000000000000
0.018179000000000 0.018179000000000 0.000000000000000
0.018512000000000 0.018512000000000 0.000000000000000
0.018815000000000 0.018815000000000 0.000000000000000
0.019259000000000 0.019259000000000 0.000000000000000
0.007950000000000 0.000896000000000 0.000000000000000
0.007799000000000 0.001780000000000 0.000000000000000
0.007551000000000 0.002642000000000 0.000000000000000
0.007208000000000 0.003471000000000 0.000000000000000
0.006774000000000 0.004256000000000 0.000000000000000
0.006255000000000 0.004988000000000 0.000000000000000
0.026997000000000 0.000375000000000 0.000000000000000
0.026977000000000 0.001108000000000 0.000000000000000
0.026960000000000 0.001466000000000 0.000000000000000
0.026938000000000 0.001823000000000 0.000000000000000
0.026912000000000 0.002181000000000 0.000000000000000
0.026880000000000 0.002538000000000 0.000000000000000
0.026844000000000 0.002894000000000 0.000000000000000
0.026753000000000 0.003646000000000 0.000000000000000
0.026696000000000 0.004040000000000 0.000000000000000
0.026633000000000 0.004434000000000 0.000000000000000
0.026565000000000 0.004827000000000 0.000000000000000
0.026491000000000 0.005219000000000 0.000000000000000
0.026411000000000 0.005610000000000 0.000000000000000
0.026325000000000 0.005999000000000 0.000000000000000
0.026234000000000 0.006387000000000 0.000000000000000
0.026136000000000 0.006774000000000 0.000000000000000
0.026033000000000 0.007160000000000 0.000000000000000
0.025925000000000 0.007543000000000 0.000000000000000
0.025811000000000 0.007926000000000 0.000000000000000
0.025691000000000 0.008306000000000 0.000000000000000
0.025565000000000 0.008684000000000 0.000000000000000
0.025434000000000 0.009061000000000 0.000000000000000
0.025298000000000 0.009436000000000 0.000000000000000
0.025155000000000 0.009809000000000 0.000000000000000
0.025008000000000 0.010179000000000 0.000000000000000
0.024855000000000 0.010547000000000 0.000000000000000
0.024696000000000 0.010913000000000 0.000000000000000
0.024532000000000 0.011277000000000 0.000000000000000
0.024363000000000 0.011638000000000 0.000000000000000
0.024188000000000 0.011997000000000 0.000000000000000
0.024009000000000 0.012353000000000 0.000000000000000
0.023823000000000 0.012706000000000 0.000000000000000
0.023633000000000 0.013056000000000 0.000000000000000
0.023438000000000 0.013404000000000 0.000000000000000
0.023237000000000 0.013749000000000 0.000000000000000
0.023032000000000 0.014091000000000 0.000000000000000
0.022821000000000 0.014429000000000 0.000000000000000
0.022605000000000 0.014765000000000 0.000000000000000
0.022385000000000 0.015097000000000 0.000000000000000
0.022159000000000 0.015426000000000 0.000000000000000
0.021929000000000 0.015752000000000 0.000000000000000
0.021694000000000 0.016074000000000 0.000000000000000
0.021454000000000 0.016393000000000 0.000000000000000
0.021210000000000 0.016708000000000 0.000000000000000
0.020961000000000 0.017019000000000 0.000000000000000
0.020707000000000 0.017327000000000 0.000000000000000
0.020449000000000 0.017631000000000 0.000000000000000
0.020186000000000 0.017931000000000 0.000000000000000
0.019919000000000 0.018227000000000 0.000000000000000
0.019648000000000 0.018520000000000 0.000000000000000
0.019372000000000 0.018808000000000 0.000000000000000
0.027499000000000 0.000240000000000 0.000000000000000
0.027496000000000 0.000480000000000 0.000000000000000
0.027491000000000 0.000720000000000 0.000000000000000
0.027483000000000 0.000960000000000 0.000000000000000
0.027474000000000 0.001200000000000 0.000000000000000
0.027462000000000 0.001439000000000 0.000000000000000
0.027449000000000 0.001679000000000 0.000000000000000
0.027433000000000 0.001918000000000 0.000000000000000
0.027415000000000 0.002158000000000 0.000000000000000
0.027395000000000 0.002397000000000 0.000000000000000
0.027373000000000 0.002636000000000 0.000000000000000
0.027349000000000 0.002875000000000 0.000000000000000
0.027323000000000 0.003113000000000 0.000000000000000
0.027295000000000 0.003351000000000 0.000000000000000
0.027265000000000 0.003589000000000 0.000000000000000
0.027232000000000 0.003827000000000 0.000000000000000
0.027198000000000 0.004065000000000 0.000000000000000
0.027161000000000 0.004302000000000 0.000000000000000
0.027123000000000 0.004539000000000 0.000000000000000
0.027082000000000 0.004775000000000 0.000000000000000
0.027040000000000 0.005011000000000 0.000000000000000
0.026995000000000 0.005247000000000 0.000000000000000
0.026948000000000 0.005483000000000 0.000000000000000
0.026899000000000 0.005718000000000 0.000000000000000
0.026848000000000 0.005952000000000 0.000000000000000
0.026795000000000 0.006186000000000 0.000000000000000
0.026740000000000 0.006420000000000 0.000000000000000
0.026683000000000 0.006653000000000 0.000000000000000
0.026624000000000 0.006885000000000 0.000000000000000
0.026563000000000 0.007118000000000 0.000000000000000
0.026500000000000 0.007349000000000 0.000000000000000
0.026435000000000 0.007580000000000 0.000000000000000
[...]
CELL_DATA 13624
VECTORS cell_data float
0.000095409328980 0.001975006580954 0.000000000000000
0.001284618865765 0.001536160888182 0.000000000000000
0.001543250976594 0.001543691938152 0.000000000000000
0.000032089458179 0.001915285944914 0.000000000000000
0.000655384290508 0.001734563011952 0.000000000000000
0.000667529514382 0.001745074756152 0.000000000000000
0.000167779860039 0.000701200721764 0.000000000000000
0.000090418878864 0.000825053888693 0.000000000000000
0.000357008980883 0.001774823529891 0.000000000000000
0.000941243721829 0.001677001822961 0.000000000000000
0.000153841952294 0.001961912778452 0.000000000000000
0.000423027180181 0.001688204761104 0.000000000000000
0.000130989669200 0.000131006437247 0.000000000000000
0.000381173889749 0.001420059951216 0.000000000000000
0.000305958290521 0.002088676393641 0.000000000000000
0.000084971652734 0.000490318680880 0.000000000000000
0.001205277259007 0.001590455755535 0.000000000000000
0.000431691737933 0.000805156354507 0.000000000000000
0.000914208556523 0.001656286080804 0.000000000000000
0.000693523110196 0.000693752598592 0.000000000000000
0.001181809100155 0.001940155889853 0.000000000000000
0.000825094811940 0.001966802873535 0.000000000000000
0.000403893283121 0.000772320849981 0.000000000000000
0.000613217619511 0.000962720988625 0.000000000000000
0.000729411256813 0.001437797129252 0.000000000000000
0.000999949513534 0.001369629746916 0.000000000000000
0.001012628426484 0.001380510106203 0.000000000000000
0.000738493084893 0.001445665545041 0.000000000000000
0.001281651941135 0.001282053046717 0.000000000000000
0.000142349845721 0.001500078968103 0.000000000000000
0.000816418600510 0.001165256406167 0.000000000000000
0.000084638742678 0.001123158899359 0.000000000000000
0.000078730619682 0.001385107361121 0.000000000000000
0.001090098106788 0.001090449210178 0.000000000000000
0.000815351646260 0.001164189451916 0.000000000000000
0.001166270832619 0.001569297888649 0.000000000000000
0.000498782317786 0.002049028524444 0.000000000000000
0.000158759359400 0.001243889980827 0.000000000000000
0.000888819242920 0.000889113101628 0.000000000000000
0.000473450593422 0.000473618136311 0.000000000000000
0.000168591253209 0.000963440118951 0.000000000000000
0.000096368209162 0.001762135180551 0.000000000000000
0.000542243849441 0.002087151657017 0.000000000000000
0.000897979354161 0.002038331909248 0.000000000000000
0.000385503551223 0.001102140399760 0.000000000000000
0.000333290718186 0.001035830101803 0.000000000000000
0.000135244304146 0.000427754920305 0.000000000000000
0.000296855637119 0.000296956548669 0.000000000000000
0.000267452908390 0.000564960731217 0.000000000000000
0.000112797759684 0.001745775741908 0.000000000000000
0.000633503074195 0.000984390910543 0.000000000000000
0.000546599551567 0.001223375597771 0.000000000000000
0.000051188012081 0.000323565384631 0.000000000000000
0.000507474530528 0.001501507672129 0.000000000000000
0.001405107044573 0.001801011064508 0.000000000000000
0.001076984060419 0.001809584349130 0.000000000000000
0.000564522920167 0.001242621412719 0.000000000000000
0.000303253219009 0.001272369943048 0.000000000000000
0.000383149115932 0.001417993006405 0.000000000000000
0.000246671268586 0.001587256204812 0.000000000000000
0.000070461307699 0.001645992858441 0.000000000000000
0.000371583394101 0.001791153255649 0.000000000000000
0.000230418479391 0.001840875310628 0.000000000000000
0.505779556269816 1.028361159344549 0.000000000000000
-0.349247148570118 2.193840476653970 0.000000000000000
-0.478598418640463 2.775533912718830 0.000000000000000
0.191776389167461 0.841083400414609 0.000000000000000
-0.101150823263174 0.876431041691134 0.000000000000000
-0.185337356366776 1.000509039711523 0.000000000000000
-0.106544168890709 0.735597220930685 0.000000000000000
0.439724221129516 0.976305991575072 0.000000000000000
0.513268177675116 1.262928868550290 0.000000000000000
0.688636349996170 0.970496747433124 0.000000000000000
0.847639791420040 1.824073343400323 0.000000000000000
1.352807401661154 1.168922813536363 0.000000000000000
0.715575902548940 0.898247028930531 0.000000000000000
-0.106224873647966 1.911022727146244 0.000000000000000
0.551473490158183 1.016336439900211 0.000000000000000
-0.085504995393212 2.058385599593697 0.000000000000000
0.182328759069227 0.871788198233858 0.000000000000000
0.354997197584347 0.098370087633215 0.000000000000000
0.613701364216743 1.403899017445808 0.000000000000000
0.167581487384690 1.326763674164566 0.000000000000000
0.045663413473754 0.905673585948969 0.000000000000000
0.301353352344842 1.131053903813662 0.000000000000000
0.117745370026474 1.582206390885471 0.000000000000000
-0.355725416235219 1.868334637452942 0.000000000000000
0.373640225998832 0.770612623085806 0.000000000000000
-0.243204773521222 2.311570317770046 0.000000000000000
-0.086788023515982 2.313642953697126 0.000000000000000
-0.153836555789574 2.138493869429761 0.000000000000000
0.581379351284853 0.962491129153195 0.000000000000000
-0.003229127796644 -0.043740626136183 0.000000000000000
0.591825249243724 1.345132690056326 0.000000000000000
0.693695454582401 0.839580674993797 0.000000000000000
-0.924594215060511 0.685261047927633 0.000000000000000
0.272687530457874 0.994891249850531 0.000000000000000
-0.005212161996959 -0.045591772076142 0.000000000000000
0.599845808476563 0.977384646562421 0.000000000000000
-1.034903001326581 1.938382184857416 0.000000000000000
-0.716999818451143 1.563822989192302 0.000000000000000
-1.052283535473839 1.664651299345530 0.000000000000000
-0.754579854740039 1.023185269523939 0.000000000000000
-0.228788387273186 1.969078311232273 0.000000000000000
0.031933987876693 0.637342439803261 0.000000000000000
-3.879843861736326 -0.040723716931010 0.000000000000000
-0.217903108924293 2.426940331782580 0.000000000000000
0.601270965345832 0.907433196896891 0.000000000000000
0.201592187100599 1.357473757452348 0.000000000000000
0.693868830250194 0.788347591862651 0.000000000000000
-0.191294054293394 1.736181292046777 0.000000000000000
-0.194295514920847 2.017294443611045 0.000000000000000
-2.570512174198950 -2.053885876820318 0.000000000000000
0.091759234147970 2.227829315852798 0.000000000000000
0.078494620840455 0.428525055602156 0.000000000000000
0.714663126053727 0.715054117147758 0.000000000000000
0.080836683334994 1.790238528529782 0.000000000000000
-0.131335093049143 0.807175730162921 0.000000000000000
-0.003200380823065 -0.039778078200796 0.000000000000000
-0.392234043618164 0.869572332140601 0.000000000000000
-0.371145123805818 1.673090678773391 0.000000000000000
-0.591080815880407 1.980597152630561 0.000000000000000
0.372274993472178 0.604639354489793 0.000000000000000
-0.010916761060014 -0.055277466659847 0.000000000000000
0.511509264577503 0.769994962668500 0.000000000000000
-0.574975840857666 1.044068624131535 0.000000000000000
-0.027079812303762 1.571717604545994 0.000000000000000
0.709177323361291 0.808023762386790 0.000000000000000
-0.104013659195052 0.559609618998725 0.000000000000000
0.659364279710690 0.874028191431043 0.000000000000000
-0.265366540760835 1.492918931820795 0.000000000000000
-0.325441113325544 2.178912016704709 0.000000000000000
-0.004638823767883 -0.048373524224627 0.000000000000000
-0.615206193251599 0.929958846994641 0.000000000000000
0.130810060072236 1.320931678047359 0.000000000000000
-0.003190651637772 -0.041778342033620 0.000000000000000
-0.126343550081739 1.050115259850511 0.000000000000000
-0.832060286436517 -1.774400187599894 0.000000000000000
0.524234820485075 0.953488692230483 0.000000000000000
-0.355437416492607 -0.761341583019895 0.000000000000000
0.525047870566972 0.948906737096185 0.000000000000000
-0.002701971672217 -0.039339386275397 0.000000000000000
-0.248573773951532 1.451920375016109 0.000000000000000
-0.067240728774310 1.695692286376275 0.000000000000000
-0.002556603884192 -0.042420497814736 0.000000000000000
0.438134972103644 1.353848332545099 0.000000000000000
0.552677009681094 0.924980447924387 0.000000000000000
-0.311259561977958 -0.839949126968497 0.000000000000000
0.634695958192910 0.925132408976504 0.000000000000000
0.381930280603526 0.892539658941043 0.000000000000000
0.546045230614003 0.976523642192508 0.000000000000000
-0.062004764893583 -0.151641779632218 0.000000000000000
-0.025509175733451 -0.082195968945942 0.000000000000000
-0.643410607597919 -2.114513791275205 0.000000000000000
-0.039082237174441 1.590529695340713 0.000000000000000
0.514146987385675 0.939469815499096 0.000000000000000
-0.623295793088027 1.510658265887595 0.000000000000000
-0.042223967354759 1.648296313463206 0.000000000000000
-0.006344798848949 1.645546779193280 0.000000000000000
-0.303906344286476 1.833946119870349 0.000000000000000
-0.463724831195248 1.990707316088072 0.000000000000000
0.517174691995708 0.921636913117597 0.000000000000000
-0.508900924830088 2.114804481927806 0.000000000000000
-0.106787611035716 1.454842686180595 0.000000000000000
-0.128085037310973 -0.366082171506871 0.000000000000000
0.644195166714816 0.644585662150720 0.000000000000000
-1.538598177526519 -0.038428852069388 0.000000000000000
-0.368130839179613 0.522996218455845 0.000000000000000
0.381229971800663 0.888337806123892 0.000000000000000
0.563333143430579 0.864217869251791 0.000000000000000
0.538672643973250 0.944664844868118 0.000000000000000
0.618803488312215 0.734194666745921 0.000000000000000
0.559525234293481 0.930189895051653 0.000000000000000
0.770689487427571 0.771077831722044 0.000000000000000
0.527280080815836 1.017511522749630 0.000000000000000
-0.454746431614873 -0.369952567173986 0.000000000000000
-0.265023778018905 -0.038158531117801 0.000000000000000
0.010917030865458 1.619178938390996 0.000000000000000
0.014207822446803 1.962742692685935 0.000000000000000
0.581710943584294 0.897780371840995 0.000000000000000
0.638697956990937 0.756173749454758 0.000000000000000
0.444121920305373 0.444528636005810 0.000000000000000
0.562220928882122 0.967923007170309 0.000000000000000
-0.535913315414120 1.866513658544220 0.000000000000000
-0.008913681767938 -0.060962677003542 0.000000000000000
-0.274313212499301 1.988043688996432 0.000000000000000
0.104270128934997 1.640335815780305 0.000000000000000
-1.103230694802773 2.089780101180107 0.000000000000000
-0.148223765060205 -0.329161170633276 0.000000000000000
-1.081125749650013 -0.832651817132748 0.000000000000000
0.860927807598985 1.082632702768703 0.000000000000000
0.304542664538444 2.039080280504908 0.000000000000000
0.074175602293972 1.979136761996651 0.000000000000000
0.519033100349254 0.772587015845895 0.000000000000000
0.483748253663168 0.895401045821671 0.000000000000000
-0.096826650344790 2.585951003889297 0.000000000000000
-0.020602443756566 -0.092911820389716 0.000000000000000
0.519596959364973 0.954924220672507 0.000000000000000
0.689529289931926 0.934811415507153 0.000000000000000
0.444741101565784 0.949103730608526 0.000000000000000
-1.792999991670049 -3.865576102034870 0.000000000000000
-0.639925099767842 -0.038062297199319 0.000000000000000
0.553397996288959 0.553791537383672 0.000000000000000
-0.107982260164149 1.697894531316295 0.000000000000000
0.110932642652503 1.373701288371232 0.000000000000000
-0.344112155984007 2.039444222038893 0.000000000000000
0.902952602408131 2.073033192802181 0.000000000000000
-0.155953829296822 1.579103249974343 0.000000000000000
0.014074032190118 1.276190744284184 0.000000000000000
-0.046236541300200 1.368718276366037 0.000000000000000
1.184000535172320 1.022948584421781 0.000000000000000
0.535608359203164 0.768100121306663 0.000000000000000
-0.159195462705090 1.586496039833454 0.000000000000000
-0.103453383264431 1.856374957134090 0.000000000000000
0.200742070914794 1.813859804303026 0.000000000000000
-1.060133591653181 1.014572001593641 0.000000000000000
0.388315598289005 0.543831387240450 0.000000000000000
-0.169891627770826 1.869183067717949 0.000000000000000
0.449053410855124 1.075466250110399 0.000000000000000
-0.149254287125158 1.808360112301242 0.000000000000000
-0.232076715276997 1.927479609690147 0.000000000000000
-0.163847045239600 1.868729058375449 0.000000000000000
0.490997011499201 0.830570606020595 0.000000000000000
-0.144761368626763 1.846236504550990 0.000000000000000
-0.050000693056628 -0.176096883427712 0.000000000000000
-0.301133226803774 2.000372161124714 0.000000000000000
0.620154325982631 0.889963787598571 0.000000000000000
0.651578945192582 1.039163003927161 0.000000000000000
0.548532857510983 1.142316945616263 0.000000000000000
0.573421915239427 1.034810180272020 0.000000000000000
-0.289529768594317 1.981111598394720 0.000000000000000
-0.117281741148389 1.812902451738132 0.000000000000000
0.312537805551677 1.378277850126575 0.000000000000000
0.123734414939983 1.568805706620242 0.000000000000000
-0.147919717121468 1.952430679494952 0.000000000000000
-0.288757997774954 2.054557985372363 0.000000000000000
-13.333937933342664 -6.101417345357942 0.000000000000000
-0.137609812838409 1.877703350019826 0.000000000000000
-0.192528735476999 -0.173099798423543 0.000000000000000
-7.582846216268501 -0.051012304718626 0.000000000000000
-0.170205060426987 1.840348352901265 0.000000000000000
-0.206369847075731 2.029975380969996 0.000000000000000
0.373923410281181 0.878539538387792 0.000000000000000
0.460064731746095 1.043505808231306 0.000000000000000
-0.475144461098930 1.822308537633003 0.000000000000000
0.540360868943089 1.735633413989137 0.000000000000000
-0.365478958630414 1.961188307346218 0.000000000000000
-0.109647460537798 -0.038509409473612 0.000000000000000
0.791678131453128 1.817627008612812 0.000000000000000
0.299439944181906 1.043101922259621 0.000000000000000
0.482716341246484 0.952787326303184 0.000000000000000
0.695426166530246 2.060371609660784 0.000000000000000
0.733815800381280 0.956878689346565 0.000000000000000
-0.183183209602196 1.467125639236917 0.000000000000000
0.635732382171142 0.841015895259307 0.000000000000000
0.011780758733167 1.620906394126408 0.000000000000000
-0.043944847749311 -0.038960372237120 0.000000000000000
0.147593377589462 1.805891607622064 0.000000000000000
0.681111943454243 1.214879489218515 0.000000000000000
0.069809137748197 2.214730704981407 0.000000000000000
-0.002116005559362 -0.041413532175798 0.000000000000000
-0.348865504008562 1.755317222690310 0.000000000000000
0.514647136728840 0.666338854592153 0.000000000000000
0.273643019528636 0.843790100315587 0.000000000000000
-0.206985968656205 1.478936037164889 0.000000000000000
-0.835129839066516 -5.923856608522170 0.000000000000000
-0.002201723298859 -0.040701263385888 0.000000000000000
0.051517895505655 1.298481708197303 0.000000000000000
0.334284985233473 0.537585073592437 0.000000000000000
0.445321570606383 0.945636604717501 0.000000000000000
0.331229878836702 1.716481092886354 0.000000000000000
0.199270310265092 0.428969503595225 0.000000000000000
-5.570958558521768 -4.397303962292777 0.000000000000000
-0.080377612446674 -0.093315706664651 0.000000000000000
-1.023341471250993 1.937948844149940 0.000000000000000
0.459531686732176 0.706390306010868 0.000000000000000
-0.002079521904071 -0.041229297733442 0.000000000000000
0.289016425100188 1.620167364505560 0.000000000000000
-0.008036313785765 2.645461104684573 0.000000000000000
-0.032171022997562 0.028340993835156 0.000000000000000
0.046522830916297 1.013879495829732 0.000000000000000
0.391747503269440 0.785059223363064 0.000000000000000
0.099074180212952 1.251768193092197 0.000000000000000
-0.453664795551835 0.089463541748791 0.000000000000000
-1.132314814312233 0.838107772609810 0.000000000000000
0.780010919298005 0.911115061058236 0.000000000000000
0.030808200717366 0.978115672847401 0.000000000000000
-0.018675633764669 -0.039426321560894 0.000000000000000
0.570569433100366 2.541652426566912 0.000000000000000
0.554158750507436 0.856452341055475 0.000000000000000
0.098697580189884 1.596239995275493 0.000000000000000
-0.005275447629978 -0.035029131576590 0.000000000000000
0.258267841637707 1.169375660265984 0.000000000000000
-0.068005013634410 1.614590367275197 0.000000000000000
-0.759294770841990 2.358192184237495 0.000000000000000
0.653315870911943 0.956868300538386 0.000000000000000
0.416077857308874 1.106822468437819 0.000000000000000
-0.134282008527842 0.205332357200000 0.000000000000000
-0.310995880993931 1.394529378906364 0.000000000000000
-0.033524013825525 -0.060621656236003 0.000000000000000
0.520895800905818 1.076012252795991 0.000000000000000
0.658621483695688 0.962173913322165 0.000000000000000
0.082117021568955 0.691625407008454 0.000000000000000
0.029801259941866 1.687919757628987 0.000000000000000
-0.381587194542097 1.560137136182291 0.000000000000000
0.102992325988822 0.758455087643250 0.000000000000000
0.590465337287920 1.023409770445404 0.000000000000000
-5.018052520735579 -4.189474033195929 0.000000000000000
0.717690560113275 0.895905124583318 0.000000000000000
-0.002203466381255 -0.041310637091211 0.000000000000000
0.453046687469622 1.239820089138076 0.000000000000000
-0.008450411479703 -0.039879743837240 0.000000000000000
-0.002178809507309 -0.040989123714850 0.000000000000000
0.813138471132020 0.813537445239019 0.000000000000000
0.561324601806034 0.793588281935217 0.000000000000000
-0.353830464054492 1.861825888658260 0.000000000000000
-0.540583474743148 1.327246109015556 0.000000000000000
-0.495211440402997 1.985506537434516 0.000000000000000
0.813892939744512 0.876912808694338 0.000000000000000
-0.206301217467740 1.478256370762490 0.000000000000000
-0.002033503582448 -0.041115158377521 0.000000000000000
0.160278177633889 0.160715791212571 0.000000000000000
-0.165187292091177 1.117557658556107 0.000000000000000
-0.423188502525750 1.636957085719234 0.000000000000000
-0.004508088360190 -0.040302234248798 0.000000000000000
-0.017720889525455 -0.037850942933329 0.000000000000000
-0.014450529586875 -0.048214538250701 0.000000000000000
-0.725774146621821 0.697414297604416 0.000000000000000
0.635962460792898 0.994166353961884 0.000000000000000
-0.002809219585333 -0.040673585182524 0.000000000000000
-0.046137243835933 0.125522794843018 0.000000000000000
-0.328095018700848 1.151505600053421 0.000000000000000
0.604948778457117 1.087136911589660 0.000000000000000
-0.046137243835928 0.015843184066246 0.000000000000000
0.616880898774688 0.819579574895966 0.000000000000000
-0.598050289887090 1.115340658756783 0.000000000000000
-0.868460126763361 1.882236704264421 0.000000000000000
-0.159370039708314 1.080827791605158 0.000000000000000
-0.446663775313458 1.857409076637928 0.000000000000000
-0.002372798910282 -0.041335779863096 0.000000000000000
-0.002175005002794 -0.040672507253681 0.000000000000000
0.318867891310820 0.986126699073252 0.000000000000000
-0.719088839251004 2.021464860110710 0.000000000000000
-0.002049133391731 -0.041180279741806 0.000000000000000
-0.602041312009795 1.828824138192933 0.000000000000000
-0.180429446694384 1.787649396658209 0.000000000000000
-0.003033576088187 -0.037259326704105 0.000000000000000
-0.235732351747048 0.682979441764885 0.000000000000000
0.483191401064659 0.917565034068323 0.000000000000000
0.003419933744674 1.828087826943121 0.000000000000000
0.256387321108613 1.215408504614248 0.000000000000000
-0.006811512564655 -0.043166748964605 0.000000000000000
-0.194109524531305 1.151201888129313 0.000000000000000
-0.251951280330081 0.669647838929590 0.000000000000000
0.687647194668619 0.944693985158336 0.000000000000000
-0.011910059144060 -0.021184401416814 0.000000000000000
-0.002177878218782 -0.041066395087202 0.000000000000000
0.757323250981942 0.834506699217866 0.000000000000000
-0.002353728011069 -0.041315991625906 0.000000000000000
-0.003435811966575 -0.041816954785402 0.000000000000000
-0.336630130396328 2.103181474335253 0.000000000000000
-0.104340499713727 1.912160986170986 0.000000000000000
0.551772847820569 0.721402709745039 0.000000000000000
-0.329388301380328 1.931202010169423 0.000000000000000
0.426925818820867 1.306510503392230 0.000000000000000