# vtk DataFile Version 2.0
B_vector
ASCII
DATASET STRUCTURED_POINTS
DIMENSIONS 257 257 1
ORIGIN 0.000000 0.000000 0.000000
SPACING 8.000000 8.000000 1
CELL_DATA 65536
VECTORS B float
-0.000692524324867 -0.001401315154010 0.000000000000000
0.001019293087084 -0.000694619464958 0.000000000000000
0.000269347484778 0.001010872722002 0.000000000000000
-0.000031695206362 -0.001138117924792 0.000000000000000
-0.000547685782627 -0.000561591725822 0.000000000000000
-0.000628727731541 -0.001446481236404 0.000000000000000
0.000003269491056 0.000320467165426 0.000000000000000
0.000981634403490 -0.000487723800841 0.000000000000000
-0.000010209698014 -0.000117055967636 0.000000000000000
0.000530793649787 -0.000938757505058 0.000000000000000
0.000694267552773 0.000751191370767 0.000000000000000
0.001190903185244 -0.000838205651897 0.000000000000000
0.000351384421302 -0.000144075456459 0.000000000000000
0.000655686888931 -0.001516275816592 0.000000000000000
0.000315464426856 -0.000026272696660 0.000000000000000
0.000999649000092 -0.001121461689898 0.000000000000000
-0.000071673098020 -0.000422452116676 0.000000000000000
0.000767192441297 -0.001248106166440 0.000000000000000
0.000666649164091 0.000061148474882 0.000000000000000
0.001266662352335 -0.001195334161872 0.000000000000000
0.000214414920088 -0.000744080147114 0.000000000000000
0.000542097982043 -0.001323499916790 0.000000000000000
0.000510895940868 -0.000165072064043 0.000000000000000
0.001602290279143 -0.000311813052215 0.000000000000000
0.000419446935435 -0.000487425289470 0.000000000000000
0.001046125267124 -0.000611390880483 0.000000000000000
0.001141280159133 0.000546733525233 0.000000000000000
0.001549697355752 -0.000566704594176 0.000000000000000
0.000936949029061 -0.000593523292227 0.000000000000000
0.000905582071691 -0.001215579446021 0.000000000000000
0.000395880273779 0.000149323991156 0.000000000000000
0.001413355255638 -0.001331330200583 0.000000000000000
0.000330684542398 -0.000112264905403 0.000000000000000
0.000628370465059 -0.000865858336189 0.000000000000000
0.000659227466937 0.000760175707746 0.000000000000000
0.001175207711403 -0.000877292301371 0.000000000000000
0.000712933048391 -0.000347124543243 0.000000000000000
0.000895924736384 -0.001091167757029 0.000000000000000
0.000269918843145 0.000604694070823 0.000000000000000
0.001692302395392 -0.000223997821896 0.000000000000000
0.000149179829254 0.000230275626645 0.000000000000000
0.000842915581793 0.000087680594301 0.000000000000000
0.000529043792102 0.001620231989648 0.000000000000000
0.000684935343497 0.000044158376999 0.000000000000000
0.000680559363954 0.001021873421273 0.000000000000000
0.000890527508527 -0.000028334546180 0.000000000000000
0.000413774833036 0.001428579251450 0.000000000000000
0.001287967126999 0.000254763027340 0.000000000000000
0.000065067443618 0.001185319096997 0.000000000000000
0.000422052738624 0.000395569249722 0.000000000000000
0.000200094423687 0.002008987734574 0.000000000000000
0.000704178447182 -0.000254216160483 0.000000000000000
0.000151394994041 0.000756357291190 0.000000000000000
0.000402182651489 -0.000216611975808 0.000000000000000
0.000309166842411 0.002066902878138 0.000000000000000
0.001331085752346 0.001146002175795 0.000000000000000
0.000205716595611 0.001508638790497 0.000000000000000
0.000697231153285 0.001145852255247 0.000000000000000
0.000730109305308 0.002446675144551 0.000000000000000
0.001125886042754 0.000747484631510 0.000000000000000
0.000421636808116 0.001058773714358 0.000000000000000
0.000599538671886 0.000108636598921 0.000000000000000
0.000399114671517 0.001829481321934 0.000000000000000
0.001096724897267 0.000872464838966 0.000000000000000
0.000509691960515 0.001713335560138 0.000000000000000
0.000938321724861 0.001173428455769 0.000000000000000
0.000733214305692 0.003173535564379 0.000000000000000
0.001886772875879 0.001156493957692 0.000000000000000
0.000764021604917 0.001410290068264 0.000000000000000
0.000979547699009 0.000438325338803 0.000000000000000
0.000715800123899 0.002381553815131 0.000000000000000
0.001376972671885 0.001262834635635 0.000000000000000
0.000225390255731 0.001578037225227 0.000000000000000
0.001438707043446 0.002018255926517 0.000000000000000
0.000966667455736 0.002763513967060 0.000000000000000
0.001797318820409 0.001908543448683 0.000000000000000
0.001341934006462 0.001802927754186 0.000000000000000
0.001393341779432 0.000802582408590 0.000000000000000
0.000977658896706 0.002370837317099 0.000000000000000
0.001995547230583 0.001922680017161 0.000000000000000
0.000615700632980 0.002436574913050 0.000000000000000
0.000629942078438 0.002499634378452 0.000000000000000
-0.000328599435078 0.003965610336871 0.000000000000000
0.000879653023880 0.001893907286586 0.000000000000000
0.001103548781661 0.002753185508185 0.000000000000000
0.001416096437319 0.001653319703309 0.000000000000000
0.001060128287055 0.003369128157850 0.000000000000000
0.002169351501961 0.002621219665984 0.000000000000000
0.000697675713017 0.003328782404446 0.000000000000000
0.000471502987232 0.002384925690356 0.000000000000000
0.000079977514787 0.004239517740489 0.000000000000000
0.001885677698054 0.003186663443222 0.000000000000000
0.000955027704670 0.002442156309365 0.000000000000000
0.001239069749276 0.002093321736565 0.000000000000000
0.000298512164644 0.004270050966937 0.000000000000000
0.001495908598478 0.001209487038352 0.000000000000000
0.000247188100929 0.003004602469778 0.000000000000000
0.000021096243673 0.002683555900486 0.000000000000000
-0.001032671339524 0.003714606357842 0.000000000000000
0.002220321146615 0.001195927081398 0.000000000000000
0.000651078514653 0.002858594575789 0.000000000000000
0.000825936454978 0.000949576678475 0.000000000000000
0.001451893273477 0.003266294920793 0.000000000000000
0.001952704537748 0.000665444263627 0.000000000000000
0.000176590976726 0.001849118476477 0.000000000000000
0.001382763100071 0.001073619458015 0.000000000000000
-0.000757025458802 0.003554953777134 0.000000000000000
0.002617487451832 0.001898314025404 0.000000000000000
0.000629867618181 0.002702588630108 0.000000000000000
0.000999431686491 0.001119010791102 0.000000000000000
0.001459778290372 0.003450137367111 0.000000000000000
0.001177273215731 0.000797785479217 0.000000000000000
-0.000395149579472 0.001780925587893 0.000000000000000
0.000594422367356 0.000842550924723 0.000000000000000
-0.001690895843525 0.002631550961560 0.000000000000000
0.000374545346285 0.000578045685029 0.000000000000000
-0.000088232594433 0.001006208432629 0.000000000000000
-0.000062681003822 0.001731050383496 0.000000000000000
0.000320512197903 0.001122926672596 0.000000000000000
0.002259690900913 0.000294166424347 0.000000000000000
0.000027607784032 0.001545823483030 0.000000000000000
-0.000140342908844 -0.000824612353285 0.000000000000000
-0.001175899102190 0.001315605594436 0.000000000000000
0.001072333829898 0.001195474397651 0.000000000000000
-0.001098779629409 -0.001398564420102 0.000000000000000
0.000565805553299 -0.000147806168896 0.000000000000000
-0.000782432970707 0.002488624516527 0.000000000000000
0.001760280276394 0.000351670490273 0.000000000000000
-0.000329862553176 0.001293924596032 0.000000000000000
-0.001552364234820 0.000759437598394 0.000000000000000
-0.001899173284583 0.002140506005595 0.000000000000000
-0.000150324548444 0.000516880720782 0.000000000000000
-0.002418410448319 -0.000034173075041 0.000000000000000
-0.000300688918364 -0.000035546891128 0.000000000000000
-0.001678513944713 0.003112423707477 0.000000000000000
0.000408136980286 -0.000589334588500 0.000000000000000
-0.001525130708130 0.002079906736916 0.000000000000000
-0.002551070882483 0.003845190349879 0.000000000000000
-0.003126244447141 0.001573592152835 0.000000000000000
0.001688620010481 -0.001009649253904 0.000000000000000
-0.002435148217838 0.000206874858907 0.000000000000000
-0.001903323727198 -0.002276684781393 0.000000000000000
-0.001281310339253 0.000103183406300 0.000000000000000
-0.000693329906127 -0.002618020168738 0.000000000000000
-0.001650887325324 -0.001686167422980 0.000000000000000
0.000944732491190 -0.002429211706025 0.000000000000000
-0.002803689750669 0.000292427937123 0.000000000000000
-0.000044117554432 -0.002658639252830 0.000000000000000
-0.001640504821486 -0.001108357286110 0.000000000000000
-0.000672860427945 -0.001328431618891 0.000000000000000
-0.001055956004241 0.001687423049544 0.000000000000000
0.000613332304538 -0.001665977375563 0.000000000000000
-0.002880726812115 0.001612028492011 0.000000000000000
0.000304975176265 -0.000517098714892 0.000000000000000
-0.003372298394731 0.003475680053913 0.000000000000000
-0.000577601131601 -0.000446445366584 0.000000000000000
-0.002354101763914 0.001265664442071 0.000000000000000
-0.000612620958331 -0.001708437765505 0.000000000000000
-0.001265920627141 -0.000605847691889 0.000000000000000
0.001123246891113 -0.002708846314649 0.000000000000000
-0.001663779324715 -0.000314554215309 0.000000000000000
0.000797743922908 -0.004199098646972 0.000000000000000
-0.001945703878901 -0.000181894775234 0.000000000000000
0.001268608610324 -0.004199865232045 0.000000000000000
-0.001310403976108 -0.000566700901827 0.000000000000000
0.000066713584936 -0.002387540963105 0.000000000000000
-0.001333199975394 0.000299993160457 0.000000000000000
0.000984473902114 -0.000646099592935 0.000000000000000
-0.001428503640436 0.002832582730218 0.000000000000000
0.001818709472541 0.001648354786978 0.000000000000000
-0.000371212927147 0.004954724041886 0.000000000000000
0.002369746880854 0.002087053190755 0.000000000000000
0.000025955589970 0.004051004409119 0.000000000000000
0.001111106997897 0.001166314730634 0.000000000000000
-0.000320569405661 0.003469417444238 0.000000000000000
0.002267685244314 0.002536347840990 0.000000000000000
-0.000464504552682 0.004930652633379 0.000000000000000
0.001943824510335 0.001439407549123 0.000000000000000
0.000334481063623 0.004290730220696 0.000000000000000
0.001870486115728 0.000707498090404 0.000000000000000
0.000859101100721 0.003325768910267 0.000000000000000
0.001640613752047 0.000493241407762 0.000000000000000
0.000188997225761 0.001819438778910 0.000000000000000
0.001690986065441 0.000819443362560 0.000000000000000
0.001106812822703 0.003544787254643 0.000000000000000
0.001452405007287 -0.000994733788211 0.000000000000000
0.000760548106531 0.001929963945746 0.000000000000000
0.003183557114474 0.000488571773041 0.000000000000000
-0.000007509829392 0.002335684063623 0.000000000000000
0.001781903290069 -0.001525138303001 0.000000000000000
0.000552113739687 0.000653393119157 0.000000000000000
0.001741051687628 -0.001336218919903 0.000000000000000
0.001433976385952 0.001920749669324 0.000000000000000
0.001813059600395 -0.002187873647472 0.000000000000000
0.000184307503464 0.001565599307883 0.000000000000000
0.002496787046642 -0.001504871184215 0.000000000000000
0.000594751880302 0.002323981497860 0.000000000000000
0.001010035525605 -0.002330325970878 0.000000000000000
-0.000072947478785 -0.001304369843866 0.000000000000000
0.000487403662873 -0.001664061866184 0.000000000000000
0.001628567375975 -0.000517479650135 0.000000000000000
0.002534827223864 -0.002518260792838 0.000000000000000
0.000288090445862 -0.000336051593002 0.000000000000000
0.002654716743898 -0.001928669307771 0.000000000000000
0.000665353452668 0.000590161681044 0.000000000000000
-0.000136420893907 -0.003717206685700 0.000000000000000
0.000258719343954 -0.002037707262993 0.000000000000000
0.000972925114536 -0.002118557585897 0.000000000000000
-0.000055129183645 0.000407569481527 0.000000000000000
0.000023161487820 -0.002458651759324 0.000000000000000
0.000206580898710 -0.000212794060936 0.000000000000000
0.001757241320968 -0.002856865541739 0.000000000000000
0.001201033571028 -0.001156283385262 0.000000000000000
-0.000367750061419 -0.002348270916818 0.000000000000000
-0.000348193725942 -0.003052780796630 0.000000000000000
0.001260353663698 -0.003668639895007 0.000000000000000
0.001266955943757 -0.001737854300192 0.000000000000000
0.000557924294427 -0.002733403584264 0.000000000000000
0.001190037281142 -0.001638649063390 0.000000000000000
0.002604521695587 -0.001421021534385 0.000000000000000
0.001241774197052 -0.000138720132381 0.000000000000000
0.001135721381027 -0.002264259312749 0.000000000000000
0.000933621435554 -0.001035292741365 0.000000000000000
0.002129146888351 -0.002641910735072 0.000000000000000
0.002443381686135 -0.000072390488756 0.000000000000000
0.002091062068445 -0.001557056720845 0.000000000000000
0.002049824188256 -0.000815230622272 0.000000000000000
0.003164122263048 -0.001656753989145 0.000000000000000
0.000765270970273 -0.000058109434613 0.000000000000000
0.001211002630605 -0.001837008393397 0.000000000000000
0.001527285087750 -0.000887734073144 0.000000000000000
0.001170586760776 -0.001455048250810 0.000000000000000
0.001677833004739 -0.001236571585807 0.000000000000000
0.001741071391423 -0.002275207048167 0.000000000000000
0.000635547889687 -0.001404283314288 0.000000000000000
0.001616087870839 -0.002885312803383 0.000000000000000
0.000639400314720 -0.001167141899530 0.000000000000000
-0.000046783187066 -0.003181524011460 0.000000000000000
0.000720679865763 -0.002431832142273 0.000000000000000
0.001026589010412 -0.002472928126047 0.000000000000000
0.000067405319246 -0.000733837381582 0.000000000000000
0.000857909467535 -0.002780580868337 0.000000000000000
0.001020550163060 -0.000839235395496 0.000000000000000
0.000585207476900 -0.001729803517872 0.000000000000000
0.000497237443884 -0.001290109062414 0.000000000000000
0.000828496332396 -0.002740478306267 0.000000000000000
0.001676831567995 -0.002402018719265 0.000000000000000
0.001993348014176 -0.001197122299307 0.000000000000000
0.000301644740494 -0.000482388975206 0.000000000000000
0.002373806883456 -0.002568127676957 0.000000000000000
0.001886270448754 -0.000259393752367 0.000000000000000
0.002467921255767 -0.000465247839432 0.000000000000000
0.001677118083644 -0.000676726955166 0.000000000000000
0.000061015707689 -0.001063175928886 0.000000000000000
0.001397950450310 0.000349392074867 0.000000000000000
0.002100479785681 -0.000105698705480 0.000000000000000
0.002418791424887 0.001358718615168 0.000000000000000
-0.000858470501518 0.000521802764116 0.000000000000000
0.000743749248498 -0.001905050924758 0.000000000000000
0.000531027721876 -0.001256811297277 0.000000000000000
0.002132229079319 -0.001867980994856 0.000000000000000
-0.000815934806038 0.000555281988491 0.000000000000000
0.002043595731888 -0.000575402988793 0.000000000000000
0.000828482764007 -0.000729380493694 0.000000000000000
0.001788948199749 -0.000662452540442 0.000000000000000
0.000063768893923 -0.000370262735959 0.000000000000000
0.001945464677497 -0.001797593701408 0.000000000000000
0.000908567447678 -0.001627018833050 0.000000000000000
0.001994769523033 -0.001120701223561 0.000000000000000
0.000021292943283 -0.000438715931975 0.000000000000000
0.001760568816184 -0.001473111850798 0.000000000000000
0.000677677414950 -0.001309263492969 0.000000000000000
0.001789096800990 -0.001225765562518 0.000000000000000
0.000091228692241 -0.000141487224861 0.000000000000000
0.001495164727172 -0.001728667426747 0.000000000000000
0.000461304708337 -0.001432785749006 0.000000000000000
0.001740233189379 -0.000999251365232 0.000000000000000
-0.000234162069277 -0.000262678769583 0.000000000000000
0.001723266436974 -0.001328636118767 0.000000000000000
0.000834141156892 -0.001502436743674 0.000000000000000
0.001974971701739 -0.001308647373688 0.000000000000000
0.000008401258673 -0.000162480764712 0.000000000000000
0.001552203934219 -0.001801194076935 0.000000000000000
0.000890124727035 -0.001562543387506 0.000000000000000
0.002080869086667 -0.001171276389590 0.000000000000000
0.000033871434653 -0.000140024490624 0.000000000000000
0.001786890444741 -0.001201704264464 0.000000000000000
0.001063410197780 -0.001488961399378 0.000000000000000
0.001913961757390 -0.001405930515570 0.000000000000000
-0.000013227684411 0.000143895935484 0.000000000000000
0.001380692452182 -0.001346840447896 0.000000000000000
0.000533587151006 -0.001198502325377 0.000000000000000
0.001979526307751 -0.000563999922131 0.000000000000000
-0.000126849609305 0.000289378617582 0.000000000000000
0.001669486303936 -0.000890873442713 0.000000000000000
0.000762615364442 -0.000847938844050 0.000000000000000
0.001704451825118 -0.000836168024866 0.000000000000000
0.000075176453559 0.000675207268107 0.000000000000000
0.001338253096667 -0.000530315624411 0.000000000000000
0.000592481643882 -0.000176166245575 0.000000000000000
0.002002339156174 0.000324150751089 0.000000000000000
-0.000338399668508 0.000681066466202 0.000000000000000
0.001289619247146 -0.000330405729185 0.000000000000000
0.000582043748527 -0.000370947735617 0.000000000000000
0.001252176576599 -0.000313010076332 0.000000000000000
-0.000446185133115 0.000906227146936 0.000000000000000
0.000671055670829 -0.000483619664763 0.000000000000000
-0.000163281238462 -0.000132567495735 0.000000000000000
0.001315341429029 0.000573726124435 0.000000000000000
-0.000506764656020 0.001002575276944 0.000000000000000
0.001226495302704 -0.000028799078726 0.000000000000000
0.000500506258472 0.000252510181615 0.000000000000000
0.001515906158721 0.000299871537452 0.000000000000000
-0.000207017885845 0.001603654024598 0.000000000000000
0.000974439279620 -0.000073613474825 0.000000000000000
0.000261626798565 -0.000077647445035 0.000000000000000
0.001604005712566 0.000522704719387 0.000000000000000
-0.000675583645785 0.001171138081586 0.000000000000000
0.001227634613439 0.000335484529275 0.000000000000000
0.000705353570207 0.000539240213472 0.000000000000000
0.001614110678322 0.000454895104545 0.000000000000000
0.000036341059218 0.001973384124364 0.000000000000000
0.001275313007841 0.000608618435587 0.000000000000000
0.000698630247129 0.000521342781143 0.000000000000000
0.002150638619499 0.000794879309662 0.000000000000000
-0.000147500416203 0.001531489342281 0.000000000000000
0.001752944169961 0.000540866298267 0.000000000000000
0.000874201519240 0.000360740834738 0.000000000000000
0.001944803384889 0.000227738657857 0.000000000000000
0.000287314013001 0.001720961891330 0.000000000000000
0.001717503650525 0.000180509331896 0.000000000000000
0.000851823484936 0.001000734436586 0.000000000000000
0.002288688569277 0.001322733587996 0.000000000000000
0.000003162868693 0.001690139143602 0.000000000000000
0.001485855265980 0.000907637777103 0.000000000000000
0.000781809084897 0.001126498474122 0.000000000000000
0.001838966014770 0.000781564612616 0.000000000000000
-0.000347686282184 0.002305983184024 0.000000000000000
0.001100613602021 0.000549498750300 0.000000000000000
-0.000196738302193 0.001495349957079 0.000000000000000
0.001529165553872 0.001914528607037 0.000000000000000
-0.000506799847176 0.002155241913145 0.000000000000000
0.001979787371294 0.001459891894865 0.000000000000000
0.000938162748471 0.001712131515389 0.000000000000000
0.002131755588285 0.001028672215383 0.000000000000000
-0.000060316050716 0.003305575233739 0.000000000000000
0.001212250729179 0.001129277152664 0.000000000000000
0.000048412978110 0.001099561499539 0.000000000000000
0.001727507486400 0.002264089109483 0.000000000000000
-0.000859503230966 0.001994457325160 0.000000000000000
0.000843433259697 0.000429003989219 0.000000000000000
-0.000303464413910 0.001120056515455 0.000000000000000
0.000838599982994 0.000426472781065 0.000000000000000
-0.000965043762808 0.002081660666188 0.000000000000000
0.000662621250267 0.000979388245067 0.000000000000000
-0.000048010395978 0.001109975433530 0.000000000000000
0.001541264254230 0.000581502269997 0.000000000000000
0.001174193906523 0.002604293243548 0.000000000000000
0.001397375371410 0.000806783298353 0.000000000000000
0.001270080072606 -0.000094173623837 0.000000000000000
0.004230258669582 0.001239232448807 0.000000000000000
0.002416407291992 0.002219809326465 0.000000000000000
0.001450954719391 0.001625673299791 0.000000000000000
0.000102450069675 0.001135761909007 0.000000000000000
0.001840402542616 0.000899856250070 0.000000000000000
-0.000338793561792 0.003013269315742 0.000000000000000
0.001694540584933 0.000312386582103 0.000000000000000
0.000747333901074 -0.000339816346539 0.000000000000000
0.001922554956821 0.000930759102332 0.000000000000000
-0.000291090849438 0.002669115775298 0.000000000000000
0.000882287397443 -0.001683440327472 0.000000000000000
-0.000381158777119 0.000822942435914 0.000000000000000
0.001228823462118 0.000183211575524 0.000000000000000
-0.000733173378769 0.000573579065220 0.000000000000000
0.001845016217765 0.001331750146763 0.000000000000000
0.001068108115416 0.000633021826376 0.000000000000000
0.001999764699458 -0.000823091861906 0.000000000000000
-0.000427280556442 0.002868544163999 0.000000000000000
0.000448714047988 -0.000376699186670 0.000000000000000
0.000737444146559 -0.000730608364185 0.000000000000000
0.001504657515661 -0.000092760413728 0.000000000000000
-0.001037277366265 0.000822001847318 0.000000000000000
0.001865640586754 0.000713168800934 0.000000000000000
0.000416705907259 0.001102590499323 0.000000000000000
0.001828568464831 -0.000443989560863 0.000000000000000
-0.000068604572665 0.001645719676179 0.000000000000000
0.000047664630497 -0.000490210775761 0.000000000000000
-0.000130370004711 -0.002041863005213 0.000000000000000
0.002627918875042 -0.002063257009923 0.000000000000000
-0.001573302004168 0.000044010408804 0.000000000000000
0.000131999905352 -0.001201544038107 0.000000000000000
-0.000353785400148 0.001469571062277 0.000000000000000
0.001771736534780 -0.000711566261242 0.000000000000000
-0.001525673082830 -0.001330355638914 0.000000000000000
-0.000347177496912 0.000083056753226 0.000000000000000
-0.001448169478825 -0.001447621924287 0.000000000000000
0.000512535379356 -0.003894164550348 0.000000000000000
-0.002360300465399 -0.001077599215551 0.000000000000000
-0.000369094044069 -0.002566650008437 0.000000000000000
-0.001120642178357 -0.003922759428177 0.000000000000000
0.001149548798203 -0.003490245773945 0.000000000000000
-0.001580950496094 -0.002882429892054 0.000000000000000
-0.000070090420224 -0.004916153163701 0.000000000000000
-0.001596492729761 -0.003160923034936 0.000000000000000
0.001306078347800 -0.004912160787141 0.000000000000000
-0.001080625040984 -0.002485449783771 0.000000000000000
0.000581132004583 -0.002786347935403 0.000000000000000
-0.001255032041011 -0.001965311343605 0.000000000000000
0.001283842105638 -0.003302425743903 0.000000000000000
-0.002397832272089 -0.001001382714594 0.000000000000000
-0.000350309827653 -0.002570414334913 0.000000000000000
-0.001577275271004 -0.002337326999992 0.000000000000000
0.000036376856626 -0.002682547893479 0.000000000000000
-0.002457691232905 -0.002685796334491 0.000000000000000
0.000420456875816 -0.003421153738246 0.000000000000000
-0.001025226507113 -0.003885784792318 0.000000000000000
0.001329004189769 -0.005162492086352 0.000000000000000
-0.001650386133393 -0.002440660883845 0.000000000000000
0.000949864358547 -0.005126510474178 0.000000000000000
-0.000829593431036 -0.004198072731366 0.000000000000000
0.001187951151450 -0.004046840846409 0.000000000000000
-0.001759355000805 -0.001904209649278 0.000000000000000
0.002015529658241 -0.002962151912029 0.000000000000000
-0.000509796206312 -0.001056420055206 0.000000000000000
0.002571410879850 -0.001311211237525 0.000000000000000
0.000092076956667 0.001944381570462 0.000000000000000
0.002777730933764 -0.001084659421798 0.000000000000000
0.000761749396930 0.000239373087076 0.000000000000000
0.004086326923576 0.000263107939394 0.000000000000000
-0.000313716824744 0.000840468331011 0.000000000000000
0.004186828762238 -0.000381891147843 0.000000000000000
0.000834882962158 0.000598158011580 0.000000000000000
0.004288421569696 -0.000358992340898 0.000000000000000
0.000295409770119 0.001726980031530 0.000000000000000
0.003664222629533 -0.001909318811300 0.000000000000000
0.001157883383153 -0.001907205314001 0.000000000000000
0.004519100380902 -0.001132335819036 0.000000000000000
0.000600024206405 -0.001109879769117 0.000000000000000
0.004364722825367 -0.002107612938628 0.000000000000000
0.001175102460135 -0.001063352148513 0.000000000000000
0.003992617743958 -0.003731978754977 0.000000000000000
0.000128522651864 -0.001286624646224 0.000000000000000
0.003861363773885 -0.001881509895211 0.000000000000000
0.001247409527841 -0.003018073613530 0.000000000000000
0.004025172222017 -0.002178657420821 0.000000000000000
0.000722509705429 -0.000090346821487 0.000000000000000
0.003592104547625 -0.002996728905380 0.000000000000000
0.002091204106537 -0.001440891345807 0.000000000000000
0.001202715574532 -0.004637995865494 0.000000000000000
0.000311627020863 -0.002615132807292 0.000000000000000
0.003093201638700 -0.002371443430853 0.000000000000000
0.001752032742772 -0.000697361093240 0.000000000000000
0.003054372876446 -0.003216511810305 0.000000000000000
-0.000102277637877 -0.001245599896141 0.000000000000000
0.002135893954224 -0.002776103265272 0.000000000000000
0.000606862295049 -0.002200028360999 0.000000000000000
0.003563220800857 -0.001880564625923 0.000000000000000
0.000574270204426 -0.001468508039115 0.000000000000000
0.003697819461506 -0.002985617007108 0.000000000000000
0.002164046656384 -0.002216707599749 0.000000000000000
0.003667523529424 -0.003758679760088 0.000000000000000
0.000900734945673 -0.001806416744403 0.000000000000000
0.002855476851227 -0.001224372410984 0.000000000000000
0.001360890383485 -0.003412622833461 0.000000000000000
0.002948723581020 -0.002057970833281 0.000000000000000
0.000872463772377 -0.000851257416142 0.000000000000000
0.003269747684082 -0.003625242682828 0.000000000000000
0.002288300181067 -0.003179319198153 0.000000000000000
0.003504830064647 -0.001748255239825 0.000000000000000
0.000934714103512 -0.002738564061027 0.000000000000000
0.003085670446820 -0.002530028226809 0.000000000000000
0.001345510466803 -0.003442383787227 0.000000000000000
0.003072244918752 -0.004302508613659 0.000000000000000
0.001235621205601 -0.002062148614290 0.000000000000000
0.002993664081785 -0.003120530512356 0.000000000000000
0.001380585442873 -0.004097227122807 0.000000000000000
0.002512432430877 -0.001733148455680 0.000000000000000
0.000651754234923 -0.002168068647445 0.000000000000000
0.002849270142874 -0.002206508796795 0.000000000000000
0.001214110799374 -0.002451701403071 0.000000000000000
0.002681421634017 -0.001843001285657 0.000000000000000
0.001604632378495 -0.000214248697449 0.000000000000000
0.003675159303647 -0.002528540792903 0.000000000000000
0.001926141096455 -0.003504909577807 0.000000000000000
0.003129966609781 -0.001744879889863 0.000000000000000
0.001056823875705 -0.000300522512176 0.000000000000000
0.003287976603905 -0.002914372450091 0.000000000000000
0.001211800424552 -0.002254418665801 0.000000000000000
0.002779702978340 -0.001263202077207 0.000000000000000
0.000584445284811 -0.001063466912564 0.000000000000000
0.002802709015814 -0.002524028873783 0.000000000000000
0.001205125825913 -0.002224548672486 0.000000000000000
0.002444582285459 -0.002427091432396 0.000000000000000
0.000408112574762 -0.001294371963811 0.000000000000000
0.002427549009227 -0.002141818265992 0.000000000000000
0.001524509858122 -0.003091641675405 0.000000000000000
0.002522244920632 -0.001921079329353 0.000000000000000
-0.000335856252347 -0.000768017120578 0.000000000000000
0.002345557533457 -0.002999304329027 0.000000000000000
0.001374165378960 -0.001340201389116 0.000000000000000
0.001959486309034 -0.000838340757158 0.000000000000000
0.000948620361316 -0.000336484706848 0.000000000000000
0.002856839508105 -0.001127088300426 0.000000000000000
0.001572535534084 -0.001088279599954 0.000000000000000
0.002950569048194 -0.001315814904646 0.000000000000000
0.000415207208864 0.000438044600159 0.000000000000000
0.001510225432657 -0.001988005116277 0.000000000000000
0.001992573477279 -0.001683582313608 0.000000000000000
0.002992392120423 -0.001124142972207 0.000000000000000
-0.000359516056714 -0.000664952514148 0.000000000000000
0.002692977088331 -0.001060387198089 0.000000000000000
0.000599435379982 -0.000823104285184 0.000000000000000
-0.000292099521890 -0.000189316836491 0.000000000000000
-0.000117881859226 -0.002471675216304 0.000000000000000
-0.000751211208399 -0.000525734861628 0.000000000000000
0.001171788878259 -0.002817764299888 0.000000000000000
-0.000049518587105 -0.000864692328794 0.000000000000000
0.001232078070827 -0.000827488798107 0.000000000000000
0.000045402610532 0.000376674014088 0.000000000000000
0.000887733587853 -0.003297439177576 0.000000000000000
0.000223878308237 -0.000389107502147 0.000000000000000
0.000888424253908 -0.001381387552377 0.000000000000000
0.000041114586347 -0.000121309082280 0.000000000000000
0.001497386832253 -0.003161800251790 0.000000000000000
0.000552971888040 -0.000598893183634 0.000000000000000
0.000740431289826 -0.001709618288443 0.000000000000000
0.000344967815994 -0.000246324395418 0.000000000000000
0.001411140856746 -0.003255298596886 0.000000000000000
0.000543052290979 -0.000467508335677 0.000000000000000
0.000698164997717 -0.001277444356078 0.000000000000000
0.000038254914185 0.000220264759022 0.000000000000000
0.001278349658371 -0.002980734978175 0.000000000000000
0.000575627574572 -0.000435136113084 0.000000000000000
0.000637094327943 -0.001203191016318 0.000000000000000
0.000156676620700 -0.000018713166236 0.000000000000000
0.001402298301105 -0.003517588576649 0.000000000000000
0.000620470493910 -0.000339705776806 0.000000000000000
0.000477495400990 -0.001021765538181 0.000000000000000
-0.000138688022035 0.000454840557445 0.000000000000000
0.001862890095696 -0.002875115703504 0.000000000000000
0.000575622700735 -0.000363808541527 0.000000000000000
0.000465280079069 -0.000742841394219 0.000000000000000
-0.000079934137258 0.000361482875354 0.000000000000000
0.001547412323883 -0.003356736325580 0.000000000000000