# vtk DataFile Version 2.0
B_vector
ASCII
DATASET STRUCTURED_POINTS
DIMENSIONS 257 257 1
ORIGIN 0.000000 0.000000 0.000000
SPACING 8.000000 8.000000 1
CELL_DATA 65536
VECTORS B float
-0.000588294910520 -0.001758487239599 0.000000000000000
0.001137601536783 -0.000783653653441 0.000000000000000
0.000381861450294 0.000485934445129 0.000000000000000
-0.000035559840610 -0.001911600834654 0.000000000000000
-0.000503296818276 -0.001021439788600 0.000000000000000
-0.000598805436652 -0.001828132288235 0.000000000000000
-0.000019850538982 -0.000409982161324 0.000000000000000
0.000860719145524 -0.001135745976162 0.000000000000000
-0.000031033305397 -0.000830601633201 0.000000000000000
0.000776274716603 -0.001452085280780 0.000000000000000
0.000690609324744 0.000118171115983 0.000000000000000
0.001116597521373 -0.001401347578442 0.000000000000000
0.000007427492191 -0.000986234650944 0.000000000000000
0.000393013295507 -0.002305186904858 0.000000000000000
0.000176502432713 -0.001230240236282 0.000000000000000
0.000684097729334 -0.002416757981902 0.000000000000000
-0.000363657554343 -0.001648675247740 0.000000000000000
0.000778922442828 -0.002608357669787 0.000000000000000
0.000906923033320 -0.001692452203378 0.000000000000000
0.001263256443399 -0.002804400895325 0.000000000000000
-0.000187369378271 -0.003158617360907 0.000000000000000
0.000248418842042 -0.003658744873640 0.000000000000000
0.000240652358267 -0.002975171272298 0.000000000000000
0.000916804720016 -0.003029436581569 0.000000000000000
0.000346411531177 -0.003403824462433 0.000000000000000
0.001210557324440 -0.003075896440462 0.000000000000000
0.001246386335724 -0.002513140302451 0.000000000000000
0.001432634213650 -0.002733133108669 0.000000000000000
0.000386233548751 -0.003489605941022 0.000000000000000
0.000699396329975 -0.003731879941018 0.000000000000000
0.000313211366847 -0.003380155930112 0.000000000000000
0.000860656114792 -0.004243172152098 0.000000000000000
0.000275165515683 -0.003833150136314 0.000000000000000
0.000846577422809 -0.003986734792172 0.000000000000000
0.000822084422428 -0.003391412779945 0.000000000000000
0.000688094813324 -0.003808452961833 0.000000000000000
0.000382626384795 -0.004223306931636 0.000000000000000
0.000561926644815 -0.004997005901094 0.000000000000000
-0.000167849504108 -0.003814277934255 0.000000000000000
0.001027967963987 -0.004660612888868 0.000000000000000
0.000041815614402 -0.004594156425401 0.000000000000000
0.001244280447308 -0.004723997707536 0.000000000000000
0.000448880777205 -0.003757544918409 0.000000000000000
0.000416901312724 -0.005161001889633 0.000000000000000
-0.000355874427445 -0.004434023146507 0.000000000000000
0.000274015116744 -0.005401396921604 0.000000000000000
0.000005068995070 -0.004792110608650 0.000000000000000
0.001149829415616 -0.005857821249831 0.000000000000000
-0.000147823318089 -0.005430422272830 0.000000000000000
0.000682706021081 -0.005047379860700 0.000000000000000
0.000530597705691 -0.004051562231319 0.000000000000000
0.001392891164454 -0.005570509351727 0.000000000000000
-0.000182356850248 -0.005513699478762 0.000000000000000
0.000152141032990 -0.005671587115875 0.000000000000000
0.000051935704438 -0.004782866671866 0.000000000000000
0.001275378407285 -0.004806478888731 0.000000000000000
0.000268987400387 -0.005469085416979 0.000000000000000
0.001007945258775 -0.004898396028311 0.000000000000000
0.000790697019576 -0.004665172572738 0.000000000000000
0.001069443102782 -0.004758292604536 0.000000000000000
-0.000289389928317 -0.005473213255141 0.000000000000000
0.000244850071298 -0.005617466818672 0.000000000000000
-0.000009220925367 -0.005657474218970 0.000000000000000
0.000742163441657 -0.005804076828713 0.000000000000000
0.000098466066017 -0.005887805617061 0.000000000000000
0.000817237494976 -0.005400600892882 0.000000000000000
0.000855865843595 -0.004886515127089 0.000000000000000
0.000975980040299 -0.005594024289733 0.000000000000000
0.000087158635684 -0.006044267326532 0.000000000000000
0.000495642469579 -0.006654899451172 0.000000000000000
0.000083729018303 -0.006099689929638 0.000000000000000
0.000933234608386 -0.006009980668376 0.000000000000000
0.000416573397159 -0.006947245487664 0.000000000000000
0.001880246595876 -0.006080301884410 0.000000000000000
0.001212148885074 -0.005657834708799 0.000000000000000
0.001098211051891 -0.006103797147485 0.000000000000000
0.000001216107862 -0.006296667185520 0.000000000000000
0.000524115424490 -0.007129998032541 0.000000000000000
0.000393809519080 -0.006943305698408 0.000000000000000
0.001118901616768 -0.007129750206497 0.000000000000000
0.000286159108651 -0.007464703303006 0.000000000000000
0.001028654150748 -0.007104636275351 0.000000000000000
0.000940908601656 -0.006555834570527 0.000000000000000
0.001067256983960 -0.006919224866711 0.000000000000000
0.000212904682799 -0.007489723384795 0.000000000000000
0.000605496425849 -0.007444321936776 0.000000000000000
0.000267314367205 -0.006828488261581 0.000000000000000
0.001117030217087 -0.006579788345307 0.000000000000000
0.000482937299385 -0.007106781466313 0.000000000000000
0.001315623666856 -0.006599755264890 0.000000000000000
0.001094320504545 -0.006132345696183 0.000000000000000
0.001484755286468 -0.006196780332026 0.000000000000000
0.000332739518144 -0.006929659833336 0.000000000000000
0.000837958965528 -0.006876883014426 0.000000000000000
0.000458207965423 -0.006852695733290 0.000000000000000
0.001030323409426 -0.006986196772917 0.000000000000000
0.000463473720499 -0.007349661313474 0.000000000000000
0.001085147104976 -0.006910811481618 0.000000000000000
0.000991641879600 -0.006391260823928 0.000000000000000
0.001021908684983 -0.006727926158199 0.000000000000000
0.000553268959349 -0.007301320285039 0.000000000000000
0.000779889236165 -0.007856566867439 0.000000000000000
0.000003827127705 -0.007093207834395 0.000000000000000
0.000994194078928 -0.007481517498250 0.000000000000000
0.000201003914516 -0.007780946123796 0.000000000000000
0.001490625178676 -0.007686427194842 0.000000000000000
0.000630718855838 -0.006704368393469 0.000000000000000
0.000742471900667 -0.007568256432172 0.000000000000000
-0.000306283671093 -0.007529474871108 0.000000000000000
0.000422916361175 -0.007923083886957 0.000000000000000
0.000135781970327 -0.007522576864403 0.000000000000000
0.001034337784718 -0.007924001282990 0.000000000000000
-0.000097670032691 -0.008090877774357 0.000000000000000
0.000900806513722 -0.006878641787084 0.000000000000000
0.000831484237903 -0.006379531661148 0.000000000000000
0.001602724991422 -0.007306634904096 0.000000000000000
0.000230296135297 -0.007750958430010 0.000000000000000
0.000335580423356 -0.007639331100187 0.000000000000000
0.000133114934027 -0.007079362589881 0.000000000000000
0.001202715898341 -0.006357054967224 0.000000000000000
0.000617982415915 -0.007584262864862 0.000000000000000
0.001374449461160 -0.006705519672074 0.000000000000000
0.000860529570315 -0.006790494050399 0.000000000000000
0.001069989953508 -0.006448754595276 0.000000000000000
-0.000195360154897 -0.007290767108545 0.000000000000000
0.000508108700608 -0.007448101015040 0.000000000000000
0.000121236724018 -0.007627300923423 0.000000000000000
0.000779150924377 -0.007564208525155 0.000000000000000
0.000115520309728 -0.008027555909256 0.000000000000000
0.000745613758873 -0.007010617556672 0.000000000000000
0.000503878186488 -0.006835973005848 0.000000000000000
0.000798267840836 -0.007440812028362 0.000000000000000
-0.000057811340492 -0.007738530657806 0.000000000000000
0.000393501199240 -0.008370879815630 0.000000000000000
-0.000207058718825 -0.007736411843258 0.000000000000000
0.000694112326584 -0.007586530360979 0.000000000000000
0.000147111128568 -0.008737671207197 0.000000000000000
0.001680864945518 -0.007158358784037 0.000000000000000
0.000663409509077 -0.006820731976115 0.000000000000000
0.000871891474591 -0.006932065590790 0.000000000000000
-0.000270463565262 -0.006978425720947 0.000000000000000
0.000425606735273 -0.007373398430725 0.000000000000000
0.000218605735591 -0.007083846470459 0.000000000000000
0.000672036504984 -0.006931658081360 0.000000000000000
0.000046079675620 -0.007517419848485 0.000000000000000
0.000917748992314 -0.006720219244026 0.000000000000000
0.000600071841103 -0.006563785873768 0.000000000000000
0.000793118303251 -0.006506253587464 0.000000000000000
0.000015787693009 -0.007049029997488 0.000000000000000
0.000395299359928 -0.006925489481475 0.000000000000000
0.000058756581045 -0.006234352903903 0.000000000000000
0.000795156525491 -0.005808817983302 0.000000000000000
0.000250285258637 -0.006511393343703 0.000000000000000
0.001150722455309 -0.005921834929039 0.000000000000000
0.000649689920859 -0.005733800227637 0.000000000000000
0.001121427920448 -0.005373558768991 0.000000000000000
0.000002401517256 -0.006170179932746 0.000000000000000
0.000825126318108 -0.006066007354835 0.000000000000000
0.000420477293227 -0.006265386655671 0.000000000000000
0.000977704375180 -0.006141653866154 0.000000000000000
0.000221696992804 -0.006564957334768 0.000000000000000
0.000847238446931 -0.006096212718570 0.000000000000000
0.000521697255649 -0.005503999781579 0.000000000000000
0.001152537850303 -0.005737200800448 0.000000000000000
0.000460554634917 -0.005950882778167 0.000000000000000
0.000765970296903 -0.006710141608031 0.000000000000000
0.000126097517838 -0.005955527795943 0.000000000000000
0.001184863610021 -0.006211559199320 0.000000000000000
0.000332195160741 -0.006842900162205 0.000000000000000
0.001504448019700 -0.006569042627242 0.000000000000000
0.000652744540657 -0.005650291067498 0.000000000000000
0.000850933810498 -0.006132939008299 0.000000000000000
0.000019173243178 -0.005985068201777 0.000000000000000
0.000435516136186 -0.006394916544936 0.000000000000000
0.000196987300796 -0.005721965584893 0.000000000000000
0.001035338831322 -0.006230813706457 0.000000000000000
0.000170458353163 -0.006437539729253 0.000000000000000
0.000743900677204 -0.005177225912192 0.000000000000000
0.000635320452432 -0.004797110373855 0.000000000000000
0.001472558524512 -0.005483788149278 0.000000000000000
0.000212364524698 -0.005498403858105 0.000000000000000
0.000208388821621 -0.005751601637101 0.000000000000000
0.000147216734524 -0.004812180019461 0.000000000000000
0.001221071410684 -0.004627897094064 0.000000000000000
0.000457948256265 -0.005693445255801 0.000000000000000
0.001002102243702 -0.004950315067080 0.000000000000000
0.000476098740653 -0.004868998231146 0.000000000000000
0.000936623661507 -0.004834099260165 0.000000000000000
-0.000068778963352 -0.004930311168647 0.000000000000000
0.000486299146513 -0.005516173677753 0.000000000000000
0.000249005998917 -0.005297109935173 0.000000000000000
0.000634678122192 -0.005678232975331 0.000000000000000
0.000104154825984 -0.005655548259983 0.000000000000000
0.000785550249290 -0.005084872911095 0.000000000000000
0.000468024208746 -0.004616315784620 0.000000000000000
0.001004742432409 -0.005257547195540 0.000000000000000
0.000176586652219 -0.005363255894556 0.000000000000000
0.000577528523634 -0.006061637462285 0.000000000000000
0.000120399050950 -0.005169785010476 0.000000000000000
0.000693682718889 -0.005022929266646 0.000000000000000
0.000208362316147 -0.006082371576057 0.000000000000000
0.001486593671184 -0.004725317315880 0.000000000000000
0.000470232288709 -0.004380981309454 0.000000000000000
0.000641158460098 -0.004574036283465 0.000000000000000
-0.000288051898995 -0.004293935668679 0.000000000000000
0.000243239778035 -0.004815245684729 0.000000000000000
0.000080049224787 -0.004541097569354 0.000000000000000
0.000848227977747 -0.004624138566750 0.000000000000000
-0.000193328312544 -0.005055678386631 0.000000000000000
0.000600520701439 -0.004532771583056 0.000000000000000
0.000394096114833 -0.004142000004290 0.000000000000000
0.000695648911372 -0.004133124865814 0.000000000000000
-0.000000618288205 -0.004446681569081 0.000000000000000
0.000207593878094 -0.004170367579190 0.000000000000000
0.000069269156773 -0.003359580848069 0.000000000000000
0.000868431998094 -0.002988236388316 0.000000000000000
0.000314803522508 -0.003635431115618 0.000000000000000
0.001011835246656 -0.003056338684371 0.000000000000000
0.000805173467213 -0.003056839935000 0.000000000000000
0.001087818143219 -0.002725057477022 0.000000000000000
0.000244233977109 -0.003278667471373 0.000000000000000
0.000809814428645 -0.003523952857507 0.000000000000000
0.000468403456755 -0.003202967190475 0.000000000000000
0.001056888468663 -0.003361162299836 0.000000000000000
0.000468912042257 -0.003373541154141 0.000000000000000
0.000970459174138 -0.003410272775918 0.000000000000000
0.000687907870621 -0.002519245017016 0.000000000000000
0.001422011124064 -0.002827348140037 0.000000000000000
0.000516733002900 -0.002848267660469 0.000000000000000
0.000780656734070 -0.003346569385828 0.000000000000000
0.000230770596964 -0.002520823330782 0.000000000000000
0.001207953542274 -0.002715964914863 0.000000000000000
0.000118100357663 -0.003166974369789 0.000000000000000
0.001093879602505 -0.002897549119993 0.000000000000000
0.000522753613174 -0.001958282119306 0.000000000000000
0.000621403933338 -0.002365655645355 0.000000000000000
0.000153771278298 -0.002298271010385 0.000000000000000
0.000547826599026 -0.002574637585815 0.000000000000000
0.000213717819146 -0.001577209712921 0.000000000000000
0.000842241430505 -0.002118417425047 0.000000000000000
-0.000021185895622 -0.002002753570486 0.000000000000000
0.000746925554399 -0.001948100708792 0.000000000000000
0.000401417905249 -0.001194096676450 0.000000000000000
0.000141057162616 -0.001674308777155 0.000000000000000
0.000184186486286 -0.001719735437699 0.000000000000000
0.001084677009559 -0.002221776238857 0.000000000000000
0.000860577365510 -0.001082660739529 0.000000000000000
0.001965749143829 -0.001283223253716 0.000000000000000
0.000101867312546 -0.001107868770519 0.000000000000000
0.001610178458459 -0.001732201556535 0.000000000000000
0.000671068331727 -0.000042021467759 0.000000000000000
0.001650591513899 -0.001139260009464 0.000000000000000
0.000557097733687 -0.000693406633718 0.000000000000000
-0.000687286299644 -0.001529664357342 0.000000000000000
0.001027880990556 0.000564397258397 0.000000000000000
0.000843980888901 -0.000164204231889 0.000000000000000
0.002229214573800 0.001127773371216 0.000000000000000
-0.001241429289503 0.000382002481613 0.000000000000000
0.000347926721829 -0.002092359751698 0.000000000000000
0.000433528304952 -0.001267455682393 0.000000000000000
0.001849225369787 -0.002052210074342 0.000000000000000
-0.000713367156148 0.000044175581405 0.000000000000000
0.001774318375229 -0.000794431968262 0.000000000000000
0.000699899880216 -0.000855039162179 0.000000000000000
0.001491839353356 -0.000806982541444 0.000000000000000
-0.000103948999672 -0.000508263235218 0.000000000000000
0.001590138482541 -0.002167123659747 0.000000000000000
0.000730928461322 -0.001996345356977 0.000000000000000
0.001486533647432 -0.001561156682016 0.000000000000000
-0.000330970245152 -0.001118713694965 0.000000000000000
0.001474126159418 -0.002211045493301 0.000000000000000
0.000355423149891 -0.001997420595071 0.000000000000000
0.001191668685165 -0.001945223756119 0.000000000000000
-0.000168996919443 -0.000844199430227 0.000000000000000
0.001270685187498 -0.002813921852339 0.000000000000000
0.000655553495659 -0.002818174350157 0.000000000000000
0.001590928195313 -0.002500765665770 0.000000000000000
-0.000229805316571 -0.002158404888176 0.000000000000000
0.001527669113569 -0.003253646948038 0.000000000000000
0.000828444962047 -0.003405593399080 0.000000000000000
0.001683626627679 -0.003425511832380 0.000000000000000
-0.000059578093893 -0.002409998893021 0.000000000000000
0.001360714909427 -0.004064827791630 0.000000000000000
0.000717364878098 -0.003909031720686 0.000000000000000
0.001783590700916 -0.003447257360644 0.000000000000000
-0.000124050367185 -0.002699000207908 0.000000000000000
0.001449996877750 -0.004122198980462 0.000000000000000
0.000677111445160 -0.004089006148113 0.000000000000000
0.001651133517088 -0.004281848548673 0.000000000000000
-0.000155402916912 -0.002914996387632 0.000000000000000
0.001246148282974 -0.004497522912526 0.000000000000000
0.000503969227060 -0.004295565764148 0.000000000000000
0.001644864716806 -0.003743573833328 0.000000000000000
-0.000359256178065 -0.003247667869233 0.000000000000000
0.001398296708163 -0.004447117625513 0.000000000000000
0.000581262529797 -0.004646181586639 0.000000000000000
0.001347223616260 -0.004669854729960 0.000000000000000
-0.000029561289152 -0.003665644089116 0.000000000000000
0.001178171250180 -0.005028614997699 0.000000000000000
0.000468093232273 -0.004735094605006 0.000000000000000
0.001502025179158 -0.004135928688208 0.000000000000000
-0.000225494946721 -0.003647056925381 0.000000000000000
0.001299016777989 -0.005242384556020 0.000000000000000
0.000622501764005 -0.005378921632277 0.000000000000000
0.001197293222479 -0.005265222975428 0.000000000000000
-0.000295171692439 -0.003989786022718 0.000000000000000
0.001078020212647 -0.005274028061393 0.000000000000000
0.000290698726787 -0.005226322188794 0.000000000000000
0.001401253399564 -0.004606558680355 0.000000000000000
-0.000438040134957 -0.004206077312382 0.000000000000000
0.001270135147416 -0.005530312845128 0.000000000000000
0.000350924852821 -0.005112416062493 0.000000000000000
0.001257192278735 -0.005218062663919 0.000000000000000
-0.000249061711571 -0.004193367258603 0.000000000000000
0.001110462221409 -0.005577354291957 0.000000000000000
0.000429293089361 -0.005165449376703 0.000000000000000
0.001498307021659 -0.004774576209771 0.000000000000000
-0.000231399689985 -0.004062158073003 0.000000000000000
0.001316413114250 -0.005589350877656 0.000000000000000
0.000602558259670 -0.005360542658847 0.000000000000000
0.001445023500052 -0.005392745949979 0.000000000000000
0.000046334084462 -0.004296045584840 0.000000000000000
0.001251256879758 -0.005747427998347 0.000000000000000
0.000642403626640 -0.005695295294881 0.000000000000000
0.001642171985918 -0.005292677999361 0.000000000000000
-0.000178181951223 -0.004933130371542 0.000000000000000
0.001380989229934 -0.006059496600200 0.000000000000000
0.000650515527806 -0.006195358202943 0.000000000000000
0.001476408661684 -0.006243959271499 0.000000000000000
0.000339496827971 -0.005205698128845 0.000000000000000
0.001526103198861 -0.006644339177112 0.000000000000000
0.000958222920735 -0.006110469820770 0.000000000000000
0.001891127884490 -0.005712640089245 0.000000000000000
0.000061810158143 -0.005322484883774 0.000000000000000
0.001396750399303 -0.007197556797926 0.000000000000000
0.000737011083052 -0.007099874509903 0.000000000000000
0.001355663523659 -0.007015070138904 0.000000000000000
-0.000091051594516 -0.006140086552347 0.000000000000000
0.001298019384051 -0.007460970804346 0.000000000000000
0.000547649936016 -0.006935569810429 0.000000000000000
0.001638214936194 -0.006299359628530 0.000000000000000
-0.000163177133536 -0.005981775087462 0.000000000000000
0.001503550342286 -0.007178643805133 0.000000000000000
0.000867735888051 -0.006740318358929 0.000000000000000
0.001757944908282 -0.006857955156011 0.000000000000000
0.000145263944111 -0.006113806067152 0.000000000000000
0.001487050548661 -0.007409146031154 0.000000000000000
0.000707374236049 -0.007030999086858 0.000000000000000
0.001873007024840 -0.006462956052346 0.000000000000000
0.000076163048980 -0.005806123072217 0.000000000000000
0.001593590931677 -0.007351110922767 0.000000000000000
0.000869311941078 -0.007047824160399 0.000000000000000
0.001847206103054 -0.007323953871906 0.000000000000000
-0.000030963119117 -0.005985365119956 0.000000000000000
0.001483809234845 -0.007417610029185 0.000000000000000
0.000811654873612 -0.007239878511755 0.000000000000000
0.001790923777459 -0.006888717555031 0.000000000000000
-0.000315497595759 -0.006147359548903 0.000000000000000
0.001517832745195 -0.007338736723564 0.000000000000000
0.000891233120114 -0.007176513424080 0.000000000000000
0.001654024661833 -0.007391851427652 0.000000000000000
0.000235398737052 -0.006389266341774 0.000000000000000
0.001600548627506 -0.007718036945142 0.000000000000000
0.000733351490647 -0.007325111280710 0.000000000000000
0.001735351796214 -0.006917492571629 0.000000000000000
0.000054534042474 -0.006224796346362 0.000000000000000
0.001563368580634 -0.007873701271795 0.000000000000000
0.000817086993689 -0.007684072107051 0.000000000000000
0.001443756259019 -0.007623793184732 0.000000000000000
-0.000018436226090 -0.006082244094863 0.000000000000000
0.001592653653375 -0.007503806894551 0.000000000000000
0.000960109605245 -0.007373753284941 0.000000000000000
0.002171970504374 -0.007131335246457 0.000000000000000
-0.000178230561769 -0.006493098516029 0.000000000000000
0.001775547295355 -0.007607370097202 0.000000000000000
0.000722881317712 -0.007151204682629 0.000000000000000
0.001717726959414 -0.007418203624912 0.000000000000000
0.000004972590632 -0.006474331478603 0.000000000000000
0.001532485407483 -0.007861746555139 0.000000000000000
0.000701612014665 -0.007363484141451 0.000000000000000
0.001901590418412 -0.006998880666715 0.000000000000000
-0.000051335588365 -0.006339802916654 0.000000000000000
0.001466424928971 -0.007897108079731 0.000000000000000
0.000530090127847 -0.007615574070198 0.000000000000000
0.001555212859661 -0.007863486030506 0.000000000000000
-0.000067742391840 -0.006769002434904 0.000000000000000
0.001262634210869 -0.007869525832230 0.000000000000000
0.000531481769538 -0.007664865642388 0.000000000000000
0.001700655862509 -0.007355218317441 0.000000000000000
-0.000431646630843 -0.006797826479919 0.000000000000000
0.001229168913393 -0.007689400828387 0.000000000000000
0.000443424164383 -0.007687364957239 0.000000000000000
0.001348252869601 -0.008036599014193 0.000000000000000
0.000161901475620 -0.006618852440889 0.000000000000000
0.001331456071574 -0.007733804422620 0.000000000000000
0.000670336911372 -0.006995491874156 0.000000000000000
0.001700188226249 -0.006700699763014 0.000000000000000
-0.000303485237810 -0.006099445359423 0.000000000000000
0.001132966211069 -0.007712289668438 0.000000000000000
0.000352097698803 -0.007299823932318 0.000000000000000
0.001303446740139 -0.007384232862319 0.000000000000000
-0.000351751048427 -0.006318216599228 0.000000000000000
0.001278156494855 -0.007615997185983 0.000000000000000
0.000274279235064 -0.007034494271555 0.000000000000000
0.001605796295928 -0.006477357452175 0.000000000000000
-0.000389359083690 -0.006199447164684 0.000000000000000
0.001469881262480 -0.007195882762293 0.000000000000000
0.000565728126954 -0.006671449732380 0.000000000000000
0.001733846155138 -0.006726771361852 0.000000000000000
-0.000128699010349 -0.005879053047346 0.000000000000000
0.001366034838617 -0.007284015029833 0.000000000000000
0.000411206831415 -0.006686807793734 0.000000000000000
0.001866315880106 -0.006104100102655 0.000000000000000
0.000182458060037 -0.005472150622348 0.000000000000000
0.001767226355325 -0.007000382980744 0.000000000000000
0.000858857491146 -0.006606608437647 0.000000000000000
0.002082357472610 -0.006858997230020 0.000000000000000
0.000036359122825 -0.005528222952571 0.000000000000000
0.001642929197405 -0.006905494402744 0.000000000000000
0.000808611868624 -0.006470289246209 0.000000000000000
0.002009809373621 -0.006029889152415 0.000000000000000
-0.000193597160007 -0.005370781216880 0.000000000000000
0.001671904801728 -0.006598974561477 0.000000000000000
0.000691545299592 -0.006551763026202 0.000000000000000
0.001766639857274 -0.006788465857977 0.000000000000000
0.000194977404065 -0.005564283475516 0.000000000000000
0.001649904431291 -0.006984982535479 0.000000000000000
0.000752894815581 -0.006499597879637 0.000000000000000
0.001999724397752 -0.005980702554639 0.000000000000000
0.000026345999509 -0.005352887000696 0.000000000000000
0.001694645726747 -0.006799214026557 0.000000000000000
0.000636874870157 -0.006798618687374 0.000000000000000
0.001592695433203 -0.006672199672162 0.000000000000000
-0.000078731624359 -0.005168738551661 0.000000000000000
0.001632351328002 -0.006462231018691 0.000000000000000
0.000796812493548 -0.006327767598255 0.000000000000000
0.002167409517874 -0.005787773157908 0.000000000000000
-0.000194975874315 -0.005108593131854 0.000000000000000
0.001697909650034 -0.006317686469114 0.000000000000000
0.000394262033388 -0.006089464461249 0.000000000000000
0.001523710447237 -0.006112242748779 0.000000000000000
-0.000194367398132 -0.005159990195599 0.000000000000000
0.001453449469195 -0.006481703954295 0.000000000000000
0.000594914410398 -0.005895065727190 0.000000000000000
0.001783894505269 -0.005420056954546 0.000000000000000
-0.000153084881908 -0.004819636628435 0.000000000000000
0.001255421302909 -0.006086259544299 0.000000000000000
0.000302707562230 -0.006001564817500 0.000000000000000
0.001427751154233 -0.005981126657749 0.000000000000000
-0.000051314520098 -0.004718022962945 0.000000000000000
0.001276284901344 -0.005981602493402 0.000000000000000
0.000543098970011 -0.005527788995959 0.000000000000000
0.001793378539577 -0.005106375255181 0.000000000000000
-0.000126214012081 -0.004439211089213 0.000000000000000
0.001358746305530 -0.005485394608278 0.000000000000000
0.000458367300791 -0.005534632093481 0.000000000000000
0.001480271889485 -0.005764259598125 0.000000000000000
-0.000000591643184 -0.004186500450313 0.000000000000000
0.001270040005399 -0.005423533479355 0.000000000000000
0.000501277251939 -0.004614187694491 0.000000000000000
0.001582797012130 -0.004262578032316 0.000000000000000
-0.000365237708390 -0.003436996494460 0.000000000000000
0.001171951930692 -0.005034926663603 0.000000000000000
0.000352948721221 -0.004926214310791 0.000000000000000
0.001263085811043 -0.004917292195772 0.000000000000000
-0.000349734471344 -0.003543916493419 0.000000000000000
0.001298336461860 -0.004978341125102 0.000000000000000
0.000480431891770 -0.004592532163984 0.000000000000000
0.001708341969066 -0.003993784155667 0.000000000000000
-0.000314685309417 -0.003392913456976 0.000000000000000
0.001556844586915 -0.004400075575351 0.000000000000000
0.000512226988366 -0.004072971556293 0.000000000000000
0.001757787112883 -0.004101503554689 0.000000000000000
-0.000157478375269 -0.003006902208358 0.000000000000000
0.001466399542151 -0.004354298279529 0.000000000000000
0.000589153281508 -0.003893871956413 0.000000000000000
0.001850133647241 -0.003226572594464 0.000000000000000
0.000035370509156 -0.002410185232358 0.000000000000000
0.001817338730201 -0.003703173603599 0.000000000000000
0.000967034966038 -0.003386660697496 0.000000000000000
0.002114112428965 -0.003512468058942 0.000000000000000
0.000148084710713 -0.002208494076526 0.000000000000000
0.001740972892954 -0.003593427452481 0.000000000000000
0.000945065474965 -0.003282302853623 0.000000000000000
0.002064658028698 -0.002638591324044 0.000000000000000
-0.000174659499283 -0.002087576315621 0.000000000000000
0.001828650753327 -0.003356884229945 0.000000000000000
0.000802218192966 -0.003316605077152 0.000000000000000
0.001843321126114 -0.003383080936847 0.000000000000000
0.000059594389211 -0.001994660585998 0.000000000000000
0.001615809101782 -0.003200981220881 0.000000000000000
0.000868896889077 -0.002632045064416 0.000000000000000
0.002022558758544 -0.002036525745239 0.000000000000000
-0.000044011234635 -0.001649123196986 0.000000000000000
0.001726212070281 -0.002585753719099 0.000000000000000
0.000554463916415 -0.002613097349890 0.000000000000000
0.001604716777702 -0.002652378012901 0.000000000000000
-0.000362922531862 -0.001074702801008 0.000000000000000
0.001193778404509 -0.002444292203954 0.000000000000000
0.000450131815911 -0.001846375642327 0.000000000000000
0.001901579249191 -0.001155683244464 0.000000000000000
0.000336822345979 -0.000315588407197 0.000000000000000
0.002110414882539 -0.001755414225128 0.000000000000000
0.001253757542126 -0.001564396654475 0.000000000000000
0.002144557578824 -0.002010840819171 0.000000000000000
-0.000234331591790 -0.000512644278712 0.000000000000000
0.000869047953316 -0.002166195965781 0.000000000000000
0.000739757225335 -0.001877504446010 0.000000000000000
0.001886491282200 -0.002038937920748 0.000000000000000
-0.001674642972272 -0.000480683608673 0.000000000000000
0.001333519643292 -0.001288675448927 0.000000000000000
-0.000472456688524 -0.001063399497983 0.000000000000000
-0.000192993236180 -0.000184143687787 0.000000000000000
-0.000762029240267 -0.002379235490747 0.000000000000000
-0.000938074234079 -0.000439319020545 0.000000000000000
0.001082927251922 -0.002805939523458 0.000000000000000
-0.000293587761070 -0.000878232058525 0.000000000000000
0.000917850031398 -0.001046599868491 0.000000000000000
0.000091393960231 0.000173537561538 0.000000000000000
0.001039842297635 -0.003145490973830 0.000000000000000
0.000295056797650 -0.000427977048307 0.000000000000000
0.000568103064288 -0.001572746997157 0.000000000000000
0.000042886544697 -0.000186518477323 0.000000000000000
0.001512025554411 -0.003440262461128 0.000000000000000
0.000476858219645 -0.000928263476685 0.000000000000000
0.000518663261619 -0.002155382196904 0.000000000000000
0.000194734811056 -0.000748695825156 0.000000000000000
0.001361999868992 -0.003784466207897 0.000000000000000
0.000484802037123 -0.000975714669501 0.000000000000000
0.000663473214458 -0.002105955254316 0.000000000000000
0.000123275908744 -0.000787162195975 0.000000000000000
0.001578938356250 -0.004062036782028 0.000000000000000
0.000553130304710 -0.001728973991573 0.000000000000000
0.000382478788456 -0.002842436600714 0.000000000000000
0.000020764729458 -0.001651869020291 0.000000000000000
0.001498810951255 -0.005150009941431 0.000000000000000
0.000612216755056 -0.002214203627748 0.000000000000000
0.000640841156362 -0.003213060709140 0.000000000000000
-0.000027138218790 -0.001858370607019 0.000000000000000
0.001706729338209 -0.004978187242377 0.000000000000000