# vtk DataFile Version 2.0
B_vector
ASCII
DATASET STRUCTURED_POINTS
DIMENSIONS 257 257 1
ORIGIN 0.000000 0.000000 0.000000
SPACING 8.000000 8.000000 1
CELL_DATA 65536
VECTORS B float
0.000616621226072 0.001659351401031 0.000000000000000
-0.001171356067061 0.000513067469001 0.000000000000000
-0.000281538814306 -0.001077352091670 0.000000000000000
0.000076524913311 0.000821672379971 0.000000000000000
0.000246490351856 -0.000071303918958 0.000000000000000
0.000588426366448 0.000627979636192 0.000000000000000
0.000125611200929 -0.001097476109862 0.000000000000000
-0.000816551968455 -0.000392692163587 0.000000000000000
0.000268757343292 -0.000519193708897 0.000000000000000
-0.000374035909772 -0.000363050028682 0.000000000000000
-0.000349406152964 -0.002114264294505 0.000000000000000
-0.000966847874224 -0.000696545466781 0.000000000000000
-0.000400535762310 -0.001772936433554 0.000000000000000
-0.000591170042753 -0.000642927363515 0.000000000000000
-0.000326081179082 -0.001777917146683 0.000000000000000
-0.000875882804394 -0.001011932268739 0.000000000000000
0.000147078186274 -0.001447986811399 0.000000000000000
-0.000658244825900 -0.000867906957865 0.000000000000000
-0.000352518633008 -0.002249965444207 0.000000000000000
-0.001053243875504 -0.001525497063994 0.000000000000000
-0.000280673615634 -0.001750227063894 0.000000000000000
-0.000374362803996 -0.001344017684460 0.000000000000000
-0.000280211679637 -0.002551490440965 0.000000000000000
-0.000986647792161 -0.002349631860852 0.000000000000000
-0.000254723243415 -0.001927824690938 0.000000000000000
-0.000941568985581 -0.002582944929600 0.000000000000000
-0.000744299963117 -0.003117427229881 0.000000000000000
-0.001162683591247 -0.002986609935760 0.000000000000000
-0.000636163167655 -0.002676684409380 0.000000000000000
-0.000628499314189 -0.001990269869566 0.000000000000000
-0.000400763005018 -0.003558646887541 0.000000000000000
-0.000996773131192 -0.001808412373066 0.000000000000000
-0.000062344595790 -0.003013757988811 0.000000000000000
-0.000333427451551 -0.002441344782710 0.000000000000000
-0.000317439436913 -0.003143092617393 0.000000000000000
-0.000858901999891 -0.002496896311641 0.000000000000000
-0.000597528181970 -0.002941753715277 0.000000000000000
-0.000637562014163 -0.001708352938294 0.000000000000000
-0.000352748669684 -0.003495471552014 0.000000000000000
-0.001123009249568 -0.002399092540145 0.000000000000000
-0.000223495997488 -0.002513859421015 0.000000000000000
-0.001244062557817 -0.002778114750981 0.000000000000000
-0.000657116994262 -0.003196002915502 0.000000000000000
-0.001049570739269 -0.002441825345159 0.000000000000000
-0.000522384420037 -0.003260111436248 0.000000000000000
-0.000946037471294 -0.002071732655168 0.000000000000000
-0.000721982680261 -0.003020131960511 0.000000000000000
-0.001656083390117 -0.002168180420995 0.000000000000000
-0.000415249727666 -0.002364745363593 0.000000000000000
-0.000923855230212 -0.002273485064507 0.000000000000000
-0.000480148009956 -0.003419542685151 0.000000000000000
-0.001286923885345 -0.002383179962635 0.000000000000000
-0.000528463162482 -0.003204636275768 0.000000000000000
-0.000623684376478 -0.002336578443646 0.000000000000000
-0.000287604518235 -0.003511620685458 0.000000000000000
-0.001451577991247 -0.003007562831044 0.000000000000000
-0.000192882493138 -0.002850886434317 0.000000000000000
-0.000704686157405 -0.003153961151838 0.000000000000000
-0.000580910593271 -0.003748098388314 0.000000000000000
-0.001474203541875 -0.003423662856221 0.000000000000000
-0.000796755775809 -0.003567868843675 0.000000000000000
-0.000969318673015 -0.002306153997779 0.000000000000000
-0.000713365152478 -0.003478452563286 0.000000000000000
-0.001193832606077 -0.002368606626987 0.000000000000000
-0.000494897365570 -0.002958144992590 0.000000000000000
-0.000602016225457 -0.002920601516962 0.000000000000000
-0.000590229406953 -0.003484109416604 0.000000000000000
-0.001510400325060 -0.002831557765603 0.000000000000000
-0.001060752198100 -0.003209633752704 0.000000000000000
-0.001165571622550 -0.001898750662804 0.000000000000000
-0.000562896952033 -0.003410888835788 0.000000000000000
-0.001109375618398 -0.002499764785171 0.000000000000000
-0.000124943442643 -0.002522485330701 0.000000000000000
-0.001501895487309 -0.003188489004970 0.000000000000000
-0.000712719745934 -0.003699567168951 0.000000000000000
-0.001149939373136 -0.003289969637990 0.000000000000000
-0.000571043230593 -0.003887694329023 0.000000000000000
-0.001111724413931 -0.003316560760140 0.000000000000000
-0.000951782800257 -0.004216225817800 0.000000000000000
-0.001355958171189 -0.004330048337579 0.000000000000000
-0.000594045966864 -0.004223184660077 0.000000000000000
-0.000847917981446 -0.004004221409559 0.000000000000000
-0.000450434163213 -0.004877064377069 0.000000000000000
-0.001188362017274 -0.004179904237390 0.000000000000000
-0.000965367071331 -0.004855887964368 0.000000000000000
-0.001062843948603 -0.003729062154889 0.000000000000000
-0.000497958622873 -0.004803514108062 0.000000000000000
-0.001242273487151 -0.004236038774252 0.000000000000000
-0.000101036392152 -0.004235725849867 0.000000000000000
-0.000569310039282 -0.003965880721807 0.000000000000000
-0.000387541018426 -0.004652159288526 0.000000000000000
-0.001167043112218 -0.003848483785987 0.000000000000000
-0.000863328576088 -0.004229413345456 0.000000000000000
-0.000838725827634 -0.003565853461623 0.000000000000000
-0.000578243285418 -0.004821877926588 0.000000000000000
-0.001397037878633 -0.003599872812629 0.000000000000000
-0.000556422397494 -0.004410473629832 0.000000000000000
-0.000736254267395 -0.003432510420680 0.000000000000000
-0.000599441118538 -0.004384320229292 0.000000000000000
-0.001636916771531 -0.002752700820565 0.000000000000000
-0.001217462122440 -0.003818264231086 0.000000000000000
-0.001148070208728 -0.002336846664548 0.000000000000000
-0.000697568058968 -0.003945225849748 0.000000000000000
-0.001496581360698 -0.002794917672873 0.000000000000000
-0.000219614244998 -0.003058979287744 0.000000000000000
-0.001031929627061 -0.002474332228303 0.000000000000000
-0.000342665240169 -0.003172596916556 0.000000000000000
-0.000557720661163 -0.001637460663915 0.000000000000000
-0.000079937279224 -0.002721741795540 0.000000000000000
-0.000514069572091 -0.001394035294652 0.000000000000000
-0.000334703363478 -0.002206986770034 0.000000000000000
-0.000766075216234 -0.001497639343143 0.000000000000000
0.000104902312160 -0.001643607392907 0.000000000000000
-0.000360294245183 -0.001680865883827 0.000000000000000
-0.000266368500888 -0.002434710040689 0.000000000000000
-0.000673320144415 -0.001301908865571 0.000000000000000
-0.000075146555901 -0.001824466511607 0.000000000000000
-0.000203100033104 -0.000784065574408 0.000000000000000
0.000056668184698 -0.002258216962218 0.000000000000000
-0.000740067102015 -0.001619450747967 0.000000000000000
0.000437797978520 -0.001810979098082 0.000000000000000
0.000071922317147 -0.002282036468387 0.000000000000000
0.000093482434750 -0.003104928880930 0.000000000000000
-0.000832129269838 -0.002656430006027 0.000000000000000
0.000247796066105 -0.002718752250075 0.000000000000000
-0.000010685995221 -0.002052536234260 0.000000000000000
0.000231267884374 -0.003119854256511 0.000000000000000
-0.000401553697884 -0.002072626724839 0.000000000000000
0.000538611784577 -0.002831127494574 0.000000000000000
-0.000001685693860 -0.002551855519414 0.000000000000000
0.000180290080607 -0.003345012664795 0.000000000000000
-0.000756273046136 -0.002571349963546 0.000000000000000
-0.000592415221035 -0.003018312156200 0.000000000000000
-0.000830354169011 -0.001671880483627 0.000000000000000
-0.000277854502201 -0.003344766795635 0.000000000000000
-0.001068020239472 -0.002335429191589 0.000000000000000
-0.000063012354076 -0.002255963161588 0.000000000000000
-0.001179250888526 -0.002341233193874 0.000000000000000
-0.000292807817459 -0.003005089238286 0.000000000000000
-0.001024732366204 -0.001841343939304 0.000000000000000
-0.000644265674055 -0.002796070650220 0.000000000000000
-0.000932028517127 -0.001482173800468 0.000000000000000
-0.000566821545362 -0.002947855740786 0.000000000000000
-0.001158846542239 -0.001824958249927 0.000000000000000
-0.000239299610257 -0.002539455890656 0.000000000000000
-0.000783769413829 -0.002479588612914 0.000000000000000
-0.000349133275449 -0.003259850665927 0.000000000000000
-0.001340560615063 -0.002029426395893 0.000000000000000
-0.000543652102351 -0.002801645547152 0.000000000000000
-0.000999544747174 -0.001497220247984 0.000000000000000
-0.000598985701799 -0.002226220443845 0.000000000000000
-0.000683745369315 -0.002506321296096 0.000000000000000
-0.000391568057239 -0.001840047538280 0.000000000000000
-0.001147455535829 -0.001237977296114 0.000000000000000
-0.000500208698213 -0.001942399889231 0.000000000000000
-0.000651862472296 -0.001070303842425 0.000000000000000
-0.000296814367175 -0.001148112118244 0.000000000000000
-0.000597242265940 -0.000073974952102 0.000000000000000
-0.000345187261701 -0.001069106161594 0.000000000000000
-0.000169856473804 -0.000423220917583 0.000000000000000
-0.000443313270807 -0.000764008611441 0.000000000000000
-0.000818319618702 0.000595383346081 0.000000000000000
-0.000377071090043 -0.000915924087167 0.000000000000000
-0.000817939639091 0.000736780464649 0.000000000000000
-0.000686821527779 -0.000497119501233 0.000000000000000
-0.001116049475968 0.001230223104358 0.000000000000000
-0.000609310343862 0.000076659023762 0.000000000000000
-0.001135776750743 0.000092448666692 0.000000000000000
-0.000525970011950 0.000863406807184 0.000000000000000
-0.001495185308158 0.000592092052102 0.000000000000000
-0.000670786947012 -0.000582808628678 0.000000000000000
-0.000748530030251 -0.000157998874784 0.000000000000000
-0.000580763444304 -0.000146683305502 0.000000000000000
-0.000973908230662 0.000358099117875 0.000000000000000
-0.000419342890382 -0.000319417566061 0.000000000000000
-0.000552766956389 -0.000241434201598 0.000000000000000
0.000247848220170 0.000313017517328 0.000000000000000
-0.000477200374007 0.000814706087112 0.000000000000000
-0.000616938807070 0.000061281025410 0.000000000000000
-0.000857069157064 0.001430423930287 0.000000000000000
-0.000388006679714 0.001401696354151 0.000000000000000
-0.000524038448930 0.002264074981213 0.000000000000000
-0.000241563655436 0.001153478398919 0.000000000000000
-0.000604773871601 0.001201437786222 0.000000000000000
-0.000260414555669 0.001741785556078 0.000000000000000
-0.001058955676854 0.001139828935266 0.000000000000000
-0.000782092101872 0.000656494870782 0.000000000000000
-0.000589514151216 0.000235054641962 0.000000000000000
-0.000446261838078 0.001068022102118 0.000000000000000
-0.000877211801708 0.001772096380591 0.000000000000000
-0.000437114387751 0.000858306884766 0.000000000000000
-0.000811617821455 0.001611990854144 0.000000000000000
0.000036520883441 0.001176452264190 0.000000000000000
-0.000519981607795 0.001237135380507 0.000000000000000
-0.000499015673995 0.000584078952670 0.000000000000000
-0.000887207686901 0.001125045120716 0.000000000000000
-0.000606122426689 0.001046234741807 0.000000000000000
-0.000823434442282 0.001996006816626 0.000000000000000
-0.000381760299206 -0.000009961426258 0.000000000000000
-0.000912033952773 0.000649431720376 0.000000000000000
-0.000088715925813 0.000558651983738 0.000000000000000
-0.001493557356298 -0.000091573223472 0.000000000000000
-0.000839695334435 -0.000495018437505 0.000000000000000
-0.000925909727812 -0.000521400943398 0.000000000000000
-0.000543881207705 -0.000827800482512 0.000000000000000
-0.001162242144346 -0.000465536490083 0.000000000000000
-0.000943181104958 -0.001593524590135 0.000000000000000
-0.002024983987212 -0.001346912235022 0.000000000000000
-0.000424868427217 -0.001255474984646 0.000000000000000
-0.000877065584064 -0.000923413783312 0.000000000000000
-0.000599090941250 -0.001958725973964 0.000000000000000
-0.001540081575513 -0.000436170026660 0.000000000000000
-0.000830603763461 -0.001309107989073 0.000000000000000
-0.001011155545712 -0.001045281067491 0.000000000000000
-0.000849009491503 -0.002004677429795 0.000000000000000
-0.001798568293452 -0.002022257074714 0.000000000000000
-0.000264657661319 -0.001470115035772 0.000000000000000
-0.000843022949994 -0.001149009913206 0.000000000000000
-0.000736228190362 -0.001743659377098 0.000000000000000
-0.001786697655916 -0.000738395377994 0.000000000000000
-0.001247121952474 -0.001104904338717 0.000000000000000
-0.001260692253709 -0.000245856121182 0.000000000000000
-0.001191068440676 -0.001283008605242 0.000000000000000
-0.001640553586185 -0.000906741246581 0.000000000000000
-0.000798212364316 -0.001059899106622 0.000000000000000
-0.001094876788557 0.000100940465927 0.000000000000000
-0.000967282801867 -0.001308325678110 0.000000000000000
-0.001398142427206 -0.000219112262130 0.000000000000000
-0.000830843113363 -0.000581631436944 0.000000000000000
-0.000941468402743 0.000112025067210 0.000000000000000
-0.000559025444090 -0.001138545572758 0.000000000000000
-0.001199868507683 -0.000463588163257 0.000000000000000
0.000264629721642 -0.000600516796112 0.000000000000000
-0.000509196892381 0.000072853639722 0.000000000000000
-0.000473238527775 -0.001514431089163 0.000000000000000
-0.001004658639431 -0.000073585659266 0.000000000000000
-0.000250048935413 -0.000809958204627 0.000000000000000
-0.000450536608696 -0.000194905325770 0.000000000000000
-0.000211609527469 -0.001012040302157 0.000000000000000
-0.001104128547013 -0.000367337837815 0.000000000000000
0.000167028978467 -0.000563584268093 0.000000000000000
-0.000586296431720 0.000387286767364 0.000000000000000
-0.000491787679493 -0.000905482098460 0.000000000000000
-0.000622902996838 0.000566493719816 0.000000000000000
-0.000499309971929 0.000111946836114 0.000000000000000
-0.001387390308082 0.001096103340387 0.000000000000000
-0.001174464821815 0.000095974653959 0.000000000000000
-0.002112874761224 0.000608082860708 0.000000000000000
-0.000137459486723 0.000188283622265 0.000000000000000
-0.001653784886003 0.001255789771676 0.000000000000000
-0.000927229411900 -0.000532737001777 0.000000000000000
-0.002044714987278 0.000277511775494 0.000000000000000
-0.000986147671938 0.000476675108075 0.000000000000000
0.000228838063776 0.001041868701577 0.000000000000000
-0.001384321600199 -0.000665402039886 0.000000000000000
-0.001187363639474 0.000083344057202 0.000000000000000
-0.002382123842835 -0.001444252207875 0.000000000000000
0.000876398757100 -0.000382158905268 0.000000000000000
-0.000683430582285 0.001804668456316 0.000000000000000
-0.000707428902388 0.000924747437239 0.000000000000000
-0.002219070680439 0.001437967643142 0.000000000000000
0.000517569482327 -0.000916333869100 0.000000000000000
-0.001725979149342 -0.000179633498192 0.000000000000000
-0.000553250312805 -0.000114589929581 0.000000000000000
-0.001573085784912 -0.000084022060037 0.000000000000000
0.000072220340371 -0.000615376979113 0.000000000000000
-0.001783206127584 0.000697195529938 0.000000000000000
-0.000956037081778 0.000220462679863 0.000000000000000
-0.001819270662963 -0.000492427498102 0.000000000000000
0.000051265582442 -0.000975966453552 0.000000000000000
-0.001743472181261 -0.000197591260076 0.000000000000000
-0.000598896294832 -0.000655928626657 0.000000000000000
-0.001689105294645 -0.000663354992867 0.000000000000000
0.000061212107539 -0.001946916803718 0.000000000000000
-0.001394608058035 -0.000424684956670 0.000000000000000
-0.000739649869502 -0.000548226758838 0.000000000000000
-0.001734836027026 -0.001155314967036 0.000000000000000
0.000369971618056 -0.001910254359245 0.000000000000000
-0.001439546234906 -0.000982008874416 0.000000000000000
-0.000404080376029 -0.000957561656833 0.000000000000000
-0.001557323150337 -0.001035550609231 0.000000000000000
0.000204967334867 -0.002281287685037 0.000000000000000
-0.001372636295855 -0.000802885740995 0.000000000000000
-0.000481162220240 -0.001033477485180 0.000000000000000
-0.001892568543553 -0.001772601157427 0.000000000000000
0.000023996457458 -0.002714227885008 0.000000000000000
-0.001655262894928 -0.001540632918477 0.000000000000000
-0.000510789453983 -0.001653430983424 0.000000000000000
-0.001578019931912 -0.001584080979228 0.000000000000000
0.000230588018894 -0.003037581220269 0.000000000000000
-0.001414415426552 -0.001511730253696 0.000000000000000
-0.000484191812575 -0.001730697229505 0.000000000000000
-0.001840732060373 -0.002411250025034 0.000000000000000
0.000080510973930 -0.003056529909372 0.000000000000000
-0.001644215546548 -0.002078337594867 0.000000000000000
-0.000571990385652 -0.001925297081470 0.000000000000000
-0.001608448103070 -0.001799128949642 0.000000000000000
-0.000142361968756 -0.002958474680781 0.000000000000000
-0.001653312705457 -0.001465976238251 0.000000000000000
-0.000669677741826 -0.002009917050600 0.000000000000000
-0.001953905448318 -0.002740345895290 0.000000000000000
-0.000237422063947 -0.003083541989326 0.000000000000000
-0.001703979447484 -0.001872299239039 0.000000000000000
-0.001004690304399 -0.002135133370757 0.000000000000000
-0.001876285299659 -0.001902796328068 0.000000000000000
-0.000186501070857 -0.003165937960148 0.000000000000000
-0.001702034845948 -0.001752428710461 0.000000000000000
-0.000836801715195 -0.002063432708383 0.000000000000000
-0.001917000859976 -0.002756841480732 0.000000000000000
-0.000065648928285 -0.003177903592587 0.000000000000000
-0.001672681421041 -0.002044143155217 0.000000000000000
-0.000461336225271 -0.002363877370954 0.000000000000000
-0.001634452491999 -0.002204895019531 0.000000000000000
0.000040562823415 -0.003385541960597 0.000000000000000
-0.001542840152979 -0.001904573291540 0.000000000000000
-0.000789482146502 -0.002024078741670 0.000000000000000
-0.001847612671554 -0.002697205170989 0.000000000000000
-0.000045550987124 -0.003226570785046 0.000000000000000
-0.001565910875797 -0.002186706289649 0.000000000000000
-0.000501681119204 -0.002197992056608 0.000000000000000
-0.001625422388315 -0.001954430714250 0.000000000000000
0.000090183690190 -0.003256019204855 0.000000000000000
-0.001506452448666 -0.001728568226099 0.000000000000000
-0.000820758752525 -0.001849785447121 0.000000000000000
-0.001930904574692 -0.002457249909639 0.000000000000000
0.000193588435650 -0.002966741099954 0.000000000000000
-0.001278698444366 -0.002316089347005 0.000000000000000
-0.000353639945388 -0.002372099086642 0.000000000000000
-0.001280332915485 -0.002062326297164 0.000000000000000
-0.000116184353828 -0.003568964079022 0.000000000000000
-0.001373391598463 -0.002162707969546 0.000000000000000
-0.000534526072443 -0.002824494615197 0.000000000000000
-0.001673446968198 -0.003394523635507 0.000000000000000
0.000038200989366 -0.003777390345931 0.000000000000000
-0.001400512643158 -0.002770002931356 0.000000000000000
-0.000516618601978 -0.003511518239975 0.000000000000000
-0.001503434032202 -0.003207722678781 0.000000000000000
0.000362249091268 -0.004468912258744 0.000000000000000
-0.001302040182054 -0.003077205270529 0.000000000000000
-0.000374262221158 -0.003405973315239 0.000000000000000
-0.001431870274246 -0.004049012437463 0.000000000000000
0.000629277899861 -0.004118841141462 0.000000000000000
-0.000991550274193 -0.002906421199441 0.000000000000000
0.000160230323672 -0.003118785098195 0.000000000000000
-0.000955230556428 -0.003057172521949 0.000000000000000
0.000655271112919 -0.003988452255726 0.000000000000000
-0.000961339101195 -0.002187404781580 0.000000000000000
-0.000165469013155 -0.002479873597622 0.000000000000000
-0.001374376006424 -0.003206398338079 0.000000000000000
0.000504044815898 -0.003769181668758 0.000000000000000
-0.001144508831203 -0.002627847716212 0.000000000000000
-0.000283966772258 -0.002951743081212 0.000000000000000
-0.001515096984804 -0.002892086282372 0.000000000000000
0.000169644132257 -0.003986997529864 0.000000000000000
-0.001431199721992 -0.002145366743207 0.000000000000000
-0.000614274293184 -0.002390099689364 0.000000000000000
-0.001940915361047 -0.003021495416760 0.000000000000000
0.000055165961385 -0.003207750618458 0.000000000000000
-0.001379007473588 -0.001999055966735 0.000000000000000
-0.000352054834366 -0.002141881734133 0.000000000000000
-0.001375936903059 -0.002012705430388 0.000000000000000
0.000052476301789 -0.002977143973112 0.000000000000000
-0.001344574615359 -0.001128094270825 0.000000000000000
-0.000153215602040 -0.001535149291158 0.000000000000000
-0.001374723389745 -0.002252994105220 0.000000000000000
0.000182468444109 -0.002334728837013 0.000000000000000
-0.001266321167350 -0.001201910898089 0.000000000000000
-0.000337607227266 -0.001265207305551 0.000000000000000
-0.001147259958088 -0.001298991963267 0.000000000000000
0.000296862795949 -0.002622572705150 0.000000000000000
-0.001192625612020 -0.001071374863386 0.000000000000000
-0.000285677611828 -0.001153901219368 0.000000000000000
-0.001296484842896 -0.001996865496039 0.000000000000000
0.000461950898170 -0.002345830202103 0.000000000000000
-0.000911222770810 -0.001430954784155 0.000000000000000
0.000001470558345 -0.001592567190528 0.000000000000000
-0.000815682113171 -0.001507354900241 0.000000000000000
0.000661695376039 -0.002842260524631 0.000000000000000
-0.000834282487631 -0.001263348385692 0.000000000000000
-0.000246635638177 -0.001537201926112 0.000000000000000
-0.001246534287930 -0.002257222309709 0.000000000000000
0.000644266605377 -0.002756049856544 0.000000000000000
-0.000760322436690 -0.001955641433597 0.000000000000000
0.000366408377886 -0.002058498561382 0.000000000000000
-0.000671591609716 -0.002078624442220 0.000000000000000
0.000701310113072 -0.003153072670102 0.000000000000000
-0.000869132578373 -0.001622956246138 0.000000000000000
-0.000162640586495 -0.002073833718896 0.000000000000000
-0.001473484560847 -0.002774160355330 0.000000000000000
0.000456966459751 -0.002937398850918 0.000000000000000
-0.001052391715348 -0.001724734902382 0.000000000000000
-0.000095432624221 -0.001598084345460 0.000000000000000
-0.001208687201142 -0.001289239153266 0.000000000000000
0.000104604288936 -0.002772781997919 0.000000000000000
-0.001203310675919 -0.001229122281075 0.000000000000000
-0.000572998076677 -0.001734741032124 0.000000000000000
-0.001982662826777 -0.002221157774329 0.000000000000000
0.000112943351269 -0.002447040751576 0.000000000000000
-0.001488494686782 -0.001621702685952 0.000000000000000
-0.000676427036524 -0.001840673387051 0.000000000000000
-0.001615528017282 -0.001551805064082 0.000000000000000
0.000181348994374 -0.002826809883118 0.000000000000000
-0.001215568743646 -0.001270884647965 0.000000000000000
-0.000299103558064 -0.001716392114758 0.000000000000000
-0.001414218917489 -0.002375189214945 0.000000000000000
0.000450810417533 -0.002202576026320 0.000000000000000
-0.001081242226064 -0.001210635527968 0.000000000000000
-0.000302333384752 -0.001694193109870 0.000000000000000
-0.001629845239222 -0.001556893810630 0.000000000000000
0.000191833823919 -0.001977596431971 0.000000000000000
-0.001053430140018 -0.000359285622835 0.000000000000000
-0.000530723482370 -0.000403916463256 0.000000000000000
-0.001429132185876 -0.000872047618032 0.000000000000000
0.000573704019189 -0.000809190794826 0.000000000000000
-0.000911973416805 -0.000159569084644 0.000000000000000
-0.000384826213121 -0.000258097425103 0.000000000000000
-0.001642152667046 0.000006677582860 0.000000000000000
0.000166907906532 -0.000720782205462 0.000000000000000
-0.001049984246492 0.000526940450072 0.000000000000000
-0.000583522021770 0.000211531296372 0.000000000000000
-0.001768504269421 -0.000413695350289 0.000000000000000
-0.000005720183253 -0.000074738636613 0.000000000000000
-0.001365333795547 0.000902719795704 0.000000000000000
-0.000750138424337 0.000856386497617 0.000000000000000
-0.001793607138097 0.000977018848062 0.000000000000000
-0.000177938491106 -0.000340795144439 0.000000000000000
-0.001282621175051 0.000758593901992 0.000000000000000
-0.000553967431188 0.000454401597381 0.000000000000000
-0.001686365343630 -0.000047551468015 0.000000000000000
0.000254075974226 -0.000094110146165 0.000000000000000
-0.001045892015100 0.000874500721693 0.000000000000000
-0.000168722122908 0.001049218699336 0.000000000000000
-0.000825991854072 0.000937329605222 0.000000000000000
0.000496527180076 -0.000042803585529 0.000000000000000
-0.000995701178908 0.002000365406275 0.000000000000000
-0.000393593683839 0.002189218997955 0.000000000000000
-0.001277617178857 0.001455044373870 0.000000000000000
0.000685321167111 0.000995917245746 0.000000000000000
-0.001080600544810 0.002081290818751 0.000000000000000
-0.000387102365494 0.001971766352654 0.000000000000000
-0.001264959573746 0.001993187703192 0.000000000000000
0.000250583514571 0.000816974788904 0.000000000000000
-0.001237400807440 0.002296359278262 0.000000000000000
-0.000318734906614 0.001695496961474 0.000000000000000
-0.001562094315886 0.000990735366940 0.000000000000000
0.000433532521129 0.000270983204246 0.000000000000000
-0.001000809483230 0.001784542575479 0.000000000000000
-0.000334398820996 0.001893902197480 0.000000000000000
-0.001371198333800 0.002275351434946 0.000000000000000
0.000401411205530 0.000865276902914 0.000000000000000
-0.001292130909860 0.002197321504354 0.000000000000000
-0.000493178144097 0.001830112189054 0.000000000000000
-0.001779980957508 0.001223988831043 0.000000000000000
0.000473387539387 0.000684605911374 0.000000000000000
-0.001355953514576 0.001530834473670 0.000000000000000
-0.000584607943892 0.001227278262377 0.000000000000000
-0.001662687398493 0.001463279128075 0.000000000000000
-0.000204820185900 -0.000013602897525 0.000000000000000
-0.001893794164062 0.001198625192046 0.000000000000000
-0.000746452249587 0.000605123117566 0.000000000000000
-0.002186430618167 -0.000259218737483 0.000000000000000
-0.000105366110802 -0.000872688367963 0.000000000000000
-0.002058318816125 0.000388830900192 0.000000000000000
-0.001044444739819 0.000026181340218 0.000000000000000
-0.002163166180253 0.000030806288123 0.000000000000000
-0.000235263258219 -0.001443674787879 0.000000000000000
-0.002003910019994 0.000349139794707 0.000000000000000
-0.000879259780049 0.000201350077987 0.000000000000000
-0.002306832931936 -0.000412030145526 0.000000000000000
-0.000160146504641 -0.001521887257695 0.000000000000000
-0.002216352149844 -0.000370837748051 0.000000000000000
-0.000813962891698 -0.000581400468946 0.000000000000000
-0.001828208565712 -0.000443471595645 0.000000000000000
0.000223096460104 -0.001024307683110 0.000000000000000
-0.001641429960728 0.000720074400306 0.000000000000000
-0.000944261439145 0.000600161030889 0.000000000000000
-0.002071680501103 0.000151032581925 0.000000000000000
0.000076724216342 -0.000902246683836 0.000000000000000
-0.001831621862948 0.000135889276862 0.000000000000000
-0.000934431329370 -0.000037582591176 0.000000000000000
-0.002110491506755 0.000070707872510 0.000000000000000
-0.000166965648532 -0.000867437571287 0.000000000000000
-0.001704731024802 0.000848991796374 0.000000000000000
-0.000801502726972 0.000773055478930 0.000000000000000
-0.001947424374521 0.000025587156415 0.000000000000000
0.000069638714194 -0.000434936955571 0.000000000000000
-0.001649579033256 0.000641306862235 0.000000000000000
-0.000407539308071 0.000548977404833 0.000000000000000
-0.001455915160477 0.000568157061934 0.000000000000000
0.000243755057454 -0.000618586316705 0.000000000000000
-0.001197209581733 0.000949976965785 0.000000000000000
-0.000386813655496 0.000677106902003 0.000000000000000
-0.001553404144943 -0.000183792784810 0.000000000000000
0.000425741076469 -0.000499172136188 0.000000000000000
-0.001327773556113 0.000509208068252 0.000000000000000
-0.000122582539916 0.000275926664472 0.000000000000000
-0.001062991097569 0.000509524717927 0.000000000000000
0.000527417287230 -0.001020913943648 0.000000000000000
-0.001000644639134 0.000882217660546 0.000000000000000
-0.000439418479800 0.000316975638270 0.000000000000000
-0.002050055190921 -0.000168800354004 0.000000000000000
-0.000533763319254 -0.001051506027579 0.000000000000000
-0.002079478465021 0.000686774030328 0.000000000000000
-0.001516288146377 0.000466572120786 0.000000000000000
-0.002208301797509 0.001182874664664 0.000000000000000
0.000015160068870 -0.000420199707150 0.000000000000000
-0.001124386675656 0.001352414488792 0.000000000000000
-0.001108628697693 0.001164162531495 0.000000000000000
-0.002288696356118 0.001557672396302 0.000000000000000
0.001261826604605 0.000121986493468 0.000000000000000
-0.001755297183990 0.000965597108006 0.000000000000000
0.000100510194898 0.000938000157475 0.000000000000000
-0.000080771744251 -0.000253874808550 0.000000000000000
0.000246671959758 0.002326716668904 0.000000000000000
0.000376436859369 0.000048680230975 0.000000000000000
-0.001697026193142 0.002495500259101 0.000000000000000
-0.000443952158093 0.000261245295405 0.000000000000000
-0.001581314951181 0.000283297151327 0.000000000000000
-0.000304643996060 -0.001070443540812 0.000000000000000
-0.001082381233573 0.002266084775329 0.000000000000000
-0.000284029170871 -0.000631961971521 0.000000000000000
-0.000806948170066 0.000498289242387 0.000000000000000
-0.000279595144093 -0.001351455226541 0.000000000000000
-0.001834353432059 0.001639386638999 0.000000000000000
-0.000877577811480 -0.001132244244218 0.000000000000000
-0.001216694712639 0.000099914148450 0.000000000000000
-0.000793147832155 -0.001520862802863 0.000000000000000
-0.001803491264582 0.001346100121737 0.000000000000000
-0.000771673396230 -0.001877576112747 0.000000000000000
-0.001055033877492 -0.000544656068087 0.000000000000000
-0.000241566449404 -0.002441463992000 0.000000000000000
-0.001801552250981 0.000662829726934 0.000000000000000
-0.000799275003374 -0.001975765451789 0.000000000000000
-0.000940279103816 -0.000852111726999 0.000000000000000
-0.000282822176814 -0.002459883689880 0.000000000000000
-0.001605449244380 0.000943688675761 0.000000000000000