# vtk DataFile Version 2.0
B_vector
ASCII
DATASET STRUCTURED_POINTS
DIMENSIONS 257 257 1
ORIGIN 0.000000 0.000000 0.000000
SPACING 8.000000 8.000000 1
CELL_DATA 65536
VECTORS B float
0.000515006482601 0.001196445897222 0.000000000000000
-0.000866089016199 0.000467818230391 0.000000000000000
-0.000232262536883 -0.001496022567153 0.000000000000000
-0.000023064203560 0.000816805288196 0.000000000000000
0.000232001766562 -0.000341990962625 0.000000000000000
0.000572385266423 0.000065177679062 0.000000000000000
0.000176114030182 -0.001320987939835 0.000000000000000
-0.000657705590129 -0.000743046402931 0.000000000000000
0.000505683012307 -0.000874696299434 0.000000000000000
-0.000283813104033 -0.000989725813270 0.000000000000000
-0.000178242102265 -0.002760568633676 0.000000000000000
-0.001071341335773 -0.002096874639392 0.000000000000000
-0.000735095702112 -0.003070076927543 0.000000000000000
-0.001059651374817 -0.002143254503608 0.000000000000000
-0.000551210716367 -0.004003657028079 0.000000000000000
-0.001039416529238 -0.003173219040036 0.000000000000000
0.000138129107654 -0.004113486036658 0.000000000000000
-0.000397298485041 -0.003278756514192 0.000000000000000
0.000027101486921 -0.004807082936168 0.000000000000000
-0.001026352867484 -0.003631222993135 0.000000000000000
-0.000086343847215 -0.004229201003909 0.000000000000000
-0.000223154202104 -0.004171082749963 0.000000000000000
-0.000352752394974 -0.005848376080394 0.000000000000000
-0.001054324209690 -0.005371753126383 0.000000000000000
-0.000188077799976 -0.005357654765248 0.000000000000000
-0.000818672589958 -0.006102709099650 0.000000000000000
-0.000274386256933 -0.007057752460241 0.000000000000000
-0.001376966014504 -0.006979813799262 0.000000000000000
-0.000831738114357 -0.006590133532882 0.000000000000000
-0.001114400103688 -0.006638282909989 0.000000000000000
-0.000792443752289 -0.008626341819763 0.000000000000000
-0.000944108702242 -0.007325582206249 0.000000000000000
-0.000255914404988 -0.008784212172031 0.000000000000000
-0.000789398327470 -0.007983310148120 0.000000000000000
-0.000370592810214 -0.009300408884883 0.000000000000000
-0.001249194145203 -0.008970461785793 0.000000000000000
-0.001150421798229 -0.009323840960860 0.000000000000000
-0.001339836046100 -0.008463410660625 0.000000000000000
-0.000833375379443 -0.010734573006630 0.000000000000000
-0.001887932419777 -0.009545780718327 0.000000000000000
-0.000406043604016 -0.010217752307653 0.000000000000000
-0.001467988826334 -0.010568365454674 0.000000000000000
-0.000149296596646 -0.011660464107990 0.000000000000000
-0.001169936731458 -0.011720979586244 0.000000000000000
-0.001237884163857 -0.012637352570891 0.000000000000000
-0.001858232542872 -0.011889841407537 0.000000000000000
-0.001656398177147 -0.013949044048786 0.000000000000000
-0.002030596137047 -0.013408493250608 0.000000000000000
-0.000979069620371 -0.013794552534819 0.000000000000000
-0.001714952290058 -0.014216570183635 0.000000000000000
-0.000820399262011 -0.015090154483914 0.000000000000000
-0.002247971482575 -0.014593103900552 0.000000000000000
-0.001275763846934 -0.014926923438907 0.000000000000000
-0.001545766368508 -0.014816729351878 0.000000000000000
-0.001417590305209 -0.016055913642049 0.000000000000000
-0.001988945528865 -0.016027821227908 0.000000000000000
-0.000927643850446 -0.015711607411504 0.000000000000000
-0.001535158604383 -0.016140377148986 0.000000000000000
-0.000520382076502 -0.016488971188664 0.000000000000000
-0.002019457519054 -0.017117885872722 0.000000000000000
-0.001191359944642 -0.016538331285119 0.000000000000000
-0.001577585935593 -0.016194576397538 0.000000000000000
-0.001022883690894 -0.016897683963180 0.000000000000000
-0.001103748567402 -0.016925340518355 0.000000000000000
-0.000632975250483 -0.017056671902537 0.000000000000000
-0.000814227387309 -0.016801813617349 0.000000000000000
0.000513006001711 -0.018380494788289 0.000000000000000
-0.001156450249255 -0.018261028453708 0.000000000000000
-0.000811601988971 -0.019249765202403 0.000000000000000
-0.001406258903444 -0.018302364274859 0.000000000000000
-0.000524165108800 -0.019635910168290 0.000000000000000
-0.001365588977933 -0.019233064725995 0.000000000000000
-0.000131773762405 -0.019364362582564 0.000000000000000
-0.000985402613878 -0.020814331248403 0.000000000000000
0.000325723551214 -0.021071543917060 0.000000000000000
-0.000983214937150 -0.021893775090575 0.000000000000000
-0.001106826588511 -0.022150760516524 0.000000000000000
-0.001553070731461 -0.021417347714305 0.000000000000000
-0.001360019668937 -0.023890124633908 0.000000000000000
-0.001553326845169 -0.023536263033748 0.000000000000000
-0.000856505706906 -0.024327145889401 0.000000000000000
-0.000309555791318 -0.024612998589873 0.000000000000000
0.001203576102853 -0.025469167158008 0.000000000000000
-0.000077599659562 -0.024393228814006 0.000000000000000
-0.000410323031247 -0.026416955515742 0.000000000000000
-0.000886226072907 -0.025360206142068 0.000000000000000
-0.000682364217937 -0.028475305065513 0.000000000000000
-0.000836647115648 -0.027265181764960 0.000000000000000
0.000260509550571 -0.028530320152640 0.000000000000000
0.000148551538587 -0.028424909338355 0.000000000000000
0.001936021726578 -0.030499095097184 0.000000000000000
-0.000169045291841 -0.030595982447267 0.000000000000000
-0.000319881364703 -0.031502939760685 0.000000000000000
-0.001261039637029 -0.030858969315886 0.000000000000000
-0.000960625708103 -0.034516625106335 0.000000000000000
-0.000455414876342 -0.032441064715385 0.000000000000000
-0.000498699024320 -0.035986408591270 0.000000000000000
-0.000998712144792 -0.035002142190933 0.000000000000000
0.000318717211485 -0.036453686654568 0.000000000000000
-0.002675663679838 -0.035287417471409 0.000000000000000
-0.001066485419869 -0.036021530628204 0.000000000000000
-0.001190425828099 -0.035066902637482 0.000000000000000
-0.001293409615755 -0.037101708352566 0.000000000000000
-0.002458806149662 -0.035160876810551 0.000000000000000
-0.001427894458175 -0.037666611373425 0.000000000000000
-0.002031385898590 -0.037590533494949 0.000000000000000
-0.000744713470340 -0.039749778807163 0.000000000000000
-0.001804172061384 -0.040732651948929 0.000000000000000
-0.002397102303803 -0.041245765984058 0.000000000000000
-0.002209507860243 -0.039789028465748 0.000000000000000
-0.002013746649027 -0.042117297649384 0.000000000000000
-0.001581018790603 -0.040889173746109 0.000000000000000
-0.001984800212085 -0.042641572654247 0.000000000000000
-0.001743397675455 -0.043783403933048 0.000000000000000
0.000046247616410 -0.044264361262321 0.000000000000000
-0.000334580428898 -0.045797213912010 0.000000000000000
-0.001146286725998 -0.046294249594212 0.000000000000000
-0.000460889190435 -0.046490974724293 0.000000000000000
0.000901487655938 -0.048151262104511 0.000000000000000
0.000627731904387 -0.045891329646111 0.000000000000000
0.001867855899036 -0.049197442829609 0.000000000000000
0.000850064679980 -0.050393596291542 0.000000000000000
0.002999016083777 -0.052029550075531 0.000000000000000
0.000534365884960 -0.052641913294792 0.000000000000000
0.000026912428439 -0.054514296352863 0.000000000000000
-0.000240409746766 -0.055190913379192 0.000000000000000
-0.000484260730445 -0.057406008243561 0.000000000000000
-0.000569926574826 -0.056275568902493 0.000000000000000
0.000349341891706 -0.059170119464397 0.000000000000000
-0.000752838328481 -0.063097938895226 0.000000000000000
0.000955203548074 -0.063935674726963 0.000000000000000
-0.003582438454032 -0.068802468478680 0.000000000000000
0.000725984573364 -0.066049739718437 0.000000000000000
0.000852074474096 -0.064070582389832 0.000000000000000
0.000749872066081 -0.067754738032818 0.000000000000000
-0.003320580348372 -0.066695302724838 0.000000000000000
-0.000236462801695 -0.070717290043831 0.000000000000000
-0.000713482499123 -0.072606720030308 0.000000000000000
0.000596167519689 -0.072035342454910 0.000000000000000
-0.000052547082305 -0.073802106082439 0.000000000000000
0.000775215215981 -0.074480853974819 0.000000000000000
0.000328268855810 -0.077820636332035 0.000000000000000
0.000328154303133 -0.083451829850674 0.000000000000000
-0.000233240425587 -0.083197422325611 0.000000000000000
-0.000923759303987 -0.085901074111462 0.000000000000000
-0.000509262084961 -0.091792680323124 0.000000000000000
0.001419599168003 -0.093432456254959 0.000000000000000
-0.000121120363474 -0.095030866563320 0.000000000000000
0.000113954767585 -0.098931722342968 0.000000000000000
-0.003484657034278 -0.099738247692585 0.000000000000000
-0.004515780135989 -0.108444742858410 0.000000000000000
-0.005535112693906 -0.106003023684025 0.000000000000000
-0.005708809942007 -0.108787097036839 0.000000000000000
-0.005841368809342 -0.123417712748051 0.000000000000000
-0.003548700362444 -0.112299419939518 0.000000000000000
-0.011189645156264 -0.111715100705624 0.000000000000000
-0.003023064695299 -0.118876256048679 0.000000000000000
-0.007048156112432 -0.117003642022610 0.000000000000000
-0.007490213960409 -0.138532206416130 0.000000000000000
-0.012572165578604 -0.146922364830971 0.000000000000000
-0.006840180605650 -0.151884078979492 0.000000000000000
-0.022051922976971 -0.171019792556763 0.000000000000000
-0.021627373993397 -0.182468861341476 0.000000000000000
-0.034329190850258 -0.186816796660423 0.000000000000000
-0.013545732945204 -0.223991021513939 0.000000000000000
-0.026372443884611 -0.218037515878677 0.000000000000000
-0.027124114334583 -0.277299344539642 0.000000000000000
-0.065511837601662 -0.265161126852036 0.000000000000000
-0.048582330346107 -0.319630622863770 0.000000000000000
-0.099346682429314 -0.345269769430161 0.000000000000000
-0.065600179135799 -0.416709989309311 0.000000000000000
-0.121981419622898 -0.550620734691620 0.000000000000000
-0.091427549719810 -0.640749156475067 0.000000000000000
-0.044419031590223 -0.867803990840912 0.000000000000000
-0.009661562740803 -0.830687403678894 0.000000000000000
0.121929101645947 -0.778267502784729 0.000000000000000
0.157439053058624 -0.553149104118347 0.000000000000000
0.085096888244152 -0.495503485202789 0.000000000000000
0.126463174819946 -0.462688505649567 0.000000000000000
0.070784971117973 -0.356100410223007 0.000000000000000
0.043869536370039 -0.305898547172546 0.000000000000000
0.035747721791267 -0.298603355884552 0.000000000000000
0.036662772297859 -0.284033030271530 0.000000000000000
0.006642417982221 -0.271151930093765 0.000000000000000
-0.001631353050470 -0.252828359603882 0.000000000000000
0.006977979093790 -0.224433168768883 0.000000000000000
0.002083297818899 -0.208984479308128 0.000000000000000
0.008853581734002 -0.207300528883934 0.000000000000000
0.000146976672113 -0.191884785890579 0.000000000000000
0.003720765933394 -0.172172173857689 0.000000000000000
0.001885073259473 -0.163936227560043 0.000000000000000
-0.002256225794554 -0.167676955461502 0.000000000000000
0.001481565646827 -0.155670896172523 0.000000000000000
-0.001610370352864 -0.152774304151535 0.000000000000000
-0.001022282987833 -0.141290411353111 0.000000000000000
0.001753471791744 -0.143818289041519 0.000000000000000
-0.004380766302347 -0.133734062314034 0.000000000000000
0.000448467209935 -0.122661702334881 0.000000000000000
0.001709636300802 -0.119295962154865 0.000000000000000
-0.002046458423138 -0.114535026252270 0.000000000000000
-0.000259844586253 -0.110891677439213 0.000000000000000
-0.001218991354108 -0.100229740142822 0.000000000000000
0.000951795838773 -0.092570379376411 0.000000000000000
0.000726434402168 -0.088423766195774 0.000000000000000
-0.001513727009296 -0.082926936447620 0.000000000000000
0.000067861750722 -0.075130097568035 0.000000000000000
0.001683508045971 -0.074319265782833 0.000000000000000
0.000711901113391 -0.071193106472492 0.000000000000000
0.000069454312325 -0.071072943508625 0.000000000000000
-0.001552318222821 -0.067223854362965 0.000000000000000
0.000337327830493 -0.064614929258823 0.000000000000000
-0.001187197864056 -0.064176686108112 0.000000000000000
0.000729386694729 -0.062058314681053 0.000000000000000
-0.000630745664239 -0.059378683567047 0.000000000000000
0.001111249439418 -0.057294800877571 0.000000000000000
0.000223066657782 -0.057010650634766 0.000000000000000
-0.000068688765168 -0.056960470974445 0.000000000000000
0.000068065710366 -0.052033923566341 0.000000000000000
0.000595972873271 -0.051374100148678 0.000000000000000
0.000231041572988 -0.050466313958168 0.000000000000000
0.000986161641777 -0.049143783748150 0.000000000000000
0.000246301293373 -0.046922445297241 0.000000000000000
0.000402824953198 -0.044973418116570 0.000000000000000
-0.001303113996983 -0.043889865279198 0.000000000000000
-0.001564325764775 -0.043474718928337 0.000000000000000
-0.001447313465178 -0.041656032204628 0.000000000000000
-0.000904084183276 -0.038750767707825 0.000000000000000
-0.002211485989392 -0.036265842616558 0.000000000000000
-0.000174267217517 -0.034772478044033 0.000000000000000
-0.000104174017906 -0.032437480986118 0.000000000000000
0.000375250354409 -0.029730847105384 0.000000000000000
-0.000670187175274 -0.030305659398437 0.000000000000000
-0.000533333048224 -0.028457080945373 0.000000000000000
-0.000683302059770 -0.025974871590734 0.000000000000000
-0.000112809240818 -0.024611102417111 0.000000000000000
-0.001651031896472 -0.023112555965781 0.000000000000000
-0.000608935952187 -0.022394606843591 0.000000000000000
-0.000528460368514 -0.018032992258668 0.000000000000000
-0.000544747337699 -0.017287718132138 0.000000000000000
-0.001444771885872 -0.015770910307765 0.000000000000000
-0.000889293849468 -0.015581944957376 0.000000000000000
-0.001212879084051 -0.012508364394307 0.000000000000000
-0.001314293593168 -0.012461071833968 0.000000000000000
-0.001126032322645 -0.011070026084781 0.000000000000000
-0.000883573666215 -0.010551761835814 0.000000000000000
-0.001503678038716 -0.008976392447948 0.000000000000000
-0.001703014597297 -0.008898420259356 0.000000000000000
-0.002268688753247 -0.007801758125424 0.000000000000000
-0.000213630497456 -0.007918387651443 0.000000000000000
-0.001555962488055 -0.005124565213919 0.000000000000000
-0.001733480021358 -0.006091518327594 0.000000000000000
-0.002292950637639 -0.004603289067745 0.000000000000000
-0.001055410131812 -0.004526646807790 0.000000000000000
0.000953735783696 -0.001704141497612 0.000000000000000
-0.001102048903704 -0.002880798652768 0.000000000000000
-0.001273669302464 -0.000659093260765 0.000000000000000
-0.003087604418397 -0.001699119806290 0.000000000000000
0.000542772933841 -0.000817839056253 0.000000000000000
-0.000803939066827 0.001403424888849 0.000000000000000
-0.000840973109007 0.000397752970457 0.000000000000000
-0.002315124496818 0.000950029119849 0.000000000000000
0.000450924038887 -0.001267326995730 0.000000000000000
-0.001885704696178 -0.000731082633138 0.000000000000000
-0.000576516613364 -0.000661814585328 0.000000000000000
-0.001446537673473 -0.000660026445985 0.000000000000000
0.000153293833137 -0.001476794481277 0.000000000000000
-0.001750394701958 -0.000673027709126 0.000000000000000
-0.001095682382584 -0.001323349773884 0.000000000000000
-0.001952601596713 -0.002147791907191 0.000000000000000
0.000190645456314 -0.002871466800570 0.000000000000000
-0.001576840877533 -0.002304470166564 0.000000000000000
-0.000657358206809 -0.002944450825453 0.000000000000000
-0.001719406805933 -0.002920946106315 0.000000000000000
0.000200366601348 -0.004501275718212 0.000000000000000
-0.001228976994753 -0.002855559810996 0.000000000000000
-0.000361829996109 -0.003216866403818 0.000000000000000
-0.001479676924646 -0.003819888457656 0.000000000000000
0.000661591067910 -0.004880566149950 0.000000000000000
-0.001530360430479 -0.004472546279430 0.000000000000000
-0.000686434097588 -0.004487363621593 0.000000000000000
-0.001765534281731 -0.004633599892259 0.000000000000000
0.000306591391563 -0.006395528092980 0.000000000000000
-0.001252404414117 -0.005302039906383 0.000000000000000
-0.000396328978240 -0.005904514342546 0.000000000000000
-0.001704571768641 -0.006529161706567 0.000000000000000
0.000358983874321 -0.007630627602339 0.000000000000000
-0.001500951126218 -0.006961129605770 0.000000000000000
-0.000571106560528 -0.007310649380088 0.000000000000000
-0.001525586470962 -0.007469559088349 0.000000000000000
0.000162659212947 -0.009387277066708 0.000000000000000
-0.001472732052207 -0.007785756140947 0.000000000000000
-0.000912537798285 -0.008604647591710 0.000000000000000
-0.002384953200817 -0.009311489760876 0.000000000000000
-0.000297391787171 -0.010033717378974 0.000000000000000
-0.002483291551471 -0.009545831009746 0.000000000000000
-0.001458989456296 -0.009372467175126 0.000000000000000
-0.002183461561799 -0.009377496317029 0.000000000000000
-0.000632680952549 -0.011191843077540 0.000000000000000
-0.002123653888702 -0.010250532999635 0.000000000000000
-0.001158759929240 -0.011346288025379 0.000000000000000
-0.002624974586070 -0.012243136763573 0.000000000000000
-0.000483587384224 -0.013188915327191 0.000000000000000
-0.002391354180872 -0.012489557266235 0.000000000000000
-0.001401331275702 -0.012678470462561 0.000000000000000
-0.002227939665318 -0.012735474854708 0.000000000000000
-0.000599080696702 -0.014849772676826 0.000000000000000
-0.002180896699429 -0.013045208528638 0.000000000000000
-0.001346674747765 -0.013909347355366 0.000000000000000
-0.002671344205737 -0.014498790726066 0.000000000000000
-0.000327263027430 -0.015580842271447 0.000000000000000
-0.002389486879110 -0.015027573332191 0.000000000000000
-0.001110764220357 -0.015287620946765 0.000000000000000
-0.002307833172381 -0.015196384862065 0.000000000000000
-0.000425422564149 -0.016994995996356 0.000000000000000
-0.002135287038982 -0.015569942072034 0.000000000000000
-0.001179494895041 -0.016481494531035 0.000000000000000
-0.002343038097024 -0.017040932551026 0.000000000000000
-0.000157356262207 -0.017838960513473 0.000000000000000
-0.002187231555581 -0.017008991912007 0.000000000000000
-0.000842830166221 -0.017343981191516 0.000000000000000
-0.001781980507076 -0.017366794869304 0.000000000000000
-0.000199444591999 -0.018896987661719 0.000000000000000
-0.001946974545717 -0.017445182427764 0.000000000000000
-0.001209730282426 -0.018160877749324 0.000000000000000
-0.002379047684371 -0.019124155864120 0.000000000000000
-0.000422045588493 -0.019760480150580 0.000000000000000
-0.002276023849845 -0.019275510683656 0.000000000000000
-0.001252878457308 -0.019360946491361 0.000000000000000
-0.001831252127886 -0.019336821511388 0.000000000000000
-0.000642118975520 -0.021230621263385 0.000000000000000
-0.002241653390229 -0.019854227080941 0.000000000000000
-0.001509404741228 -0.021012825891376 0.000000000000000
-0.002940358594060 -0.022176874801517 0.000000000000000
-0.000730760395527 -0.023780575022101 0.000000000000000
-0.002646157518029 -0.022566648200154 0.000000000000000
-0.001148793846369 -0.023211402818561 0.000000000000000
-0.002176957204938 -0.023676129058003 0.000000000000000
-0.000530611723661 -0.025176385417581 0.000000000000000
-0.002474444918334 -0.023700399324298 0.000000000000000
-0.000891199335456 -0.024028530344367 0.000000000000000
-0.002082338556647 -0.025351529940963 0.000000000000000
0.000192243605852 -0.026858938857913 0.000000000000000
-0.002406289801002 -0.026703996583819 0.000000000000000
-0.000776900909841 -0.026205008849502 0.000000000000000
-0.001573984511197 -0.027664592489600 0.000000000000000
0.000156085938215 -0.029063036665320 0.000000000000000
-0.001511003822088 -0.027721473947167 0.000000000000000
0.000085795298219 -0.029302613809705 0.000000000000000
-0.001454932615161 -0.030989887192845 0.000000000000000
0.000227492302656 -0.032376103103161 0.000000000000000
-0.002159898169339 -0.031661398708820 0.000000000000000
-0.000716942362487 -0.031534090638161 0.000000000000000
-0.001752628944814 -0.033506669104099 0.000000000000000
-0.000447295606136 -0.035453729331493 0.000000000000000
-0.001978849060833 -0.032381236553192 0.000000000000000
-0.001302472315729 -0.033344253897667 0.000000000000000
-0.002924058586359 -0.034540608525276 0.000000000000000
-0.000613912940025 -0.035828903317451 0.000000000000000
-0.003413834609091 -0.034744247794151 0.000000000000000
-0.002584335394204 -0.034052655100822 0.000000000000000
-0.003984363749623 -0.035504162311554 0.000000000000000
-0.002596609294415 -0.037847250699997 0.000000000000000
-0.004253580234945 -0.035554267466068 0.000000000000000
-0.002273712307215 -0.037587933242321 0.000000000000000
-0.004240164533257 -0.039081908762455 0.000000000000000
-0.001745607703924 -0.040726594626904 0.000000000000000
-0.004013206809759 -0.039533168077469 0.000000000000000
-0.002167683094740 -0.039189137518406 0.000000000000000
-0.003877795301378 -0.040375106036663 0.000000000000000
-0.001502189785242 -0.042914658784866 0.000000000000000
-0.003137223422527 -0.041064396500587 0.000000000000000
-0.000808646902442 -0.042766921222210 0.000000000000000
-0.002952989190817 -0.044177003204823 0.000000000000000
0.000214986503124 -0.046992406249046 0.000000000000000
-0.001820609904826 -0.046006418764591 0.000000000000000
-0.000341008417308 -0.045562349259853 0.000000000000000
-0.001766653731465 -0.047191470861435 0.000000000000000
-0.000620953738689 -0.050650298595428 0.000000000000000
-0.001837022602558 -0.049150809645653 0.000000000000000
-0.000503672286868 -0.051135018467903 0.000000000000000
-0.003071401268244 -0.052977755665779 0.000000000000000
-0.000949267297983 -0.055591672658920 0.000000000000000
-0.004025733098388 -0.054165646433830 0.000000000000000
-0.001742308028042 -0.053172759711742 0.000000000000000
-0.003412755206227 -0.056106783449650 0.000000000000000
-0.000801242887974 -0.060446187853813 0.000000000000000
-0.003621045500040 -0.059375278651714 0.000000000000000
-0.001630043610930 -0.060180902481079 0.000000000000000
-0.004603751935065 -0.061475329101086 0.000000000000000
-0.000775918364525 -0.062400273978710 0.000000000000000
-0.004845358431339 -0.063329905271530 0.000000000000000
-0.001489132642746 -0.064580626785755 0.000000000000000
-0.005329555831850 -0.065693683922291 0.000000000000000
-0.002633869647980 -0.069746620953083 0.000000000000000
-0.005084142088890 -0.069992639124393 0.000000000000000
-0.003395071253181 -0.070832870900631 0.000000000000000
-0.006799269467592 -0.073006056249142 0.000000000000000
-0.002789106220007 -0.076754570007324 0.000000000000000
-0.005613090470433 -0.076939873397350 0.000000000000000
-0.002105969935656 -0.079930245876312 0.000000000000000
-0.005766317248344 -0.082176968455315 0.000000000000000
-0.002990148961544 -0.084322147071362 0.000000000000000
-0.006401313468814 -0.085487060248852 0.000000000000000
-0.004707630723715 -0.085258066654205 0.000000000000000
-0.008681382983923 -0.087922945618629 0.000000000000000
-0.006064593791962 -0.092783950269222 0.000000000000000
-0.008931234478951 -0.096263892948627 0.000000000000000
-0.008620362728834 -0.102451927959919 0.000000000000000
-0.011586207896471 -0.107606105506420 0.000000000000000
-0.011186402291059 -0.106940530240536 0.000000000000000
-0.015905532985926 -0.106416620314121 0.000000000000000
-0.018110048025846 -0.106812685728073 0.000000000000000
-0.020957712084055 -0.112852685153484 0.000000000000000
-0.012616798281670 -0.119689501821995 0.000000000000000
-0.019801728427410 -0.124628849327564 0.000000000000000
-0.019983179867268 -0.140538558363914 0.000000000000000
-0.029524039477110 -0.150896430015564 0.000000000000000
-0.028080090880394 -0.154635325074196 0.000000000000000
-0.042393673211336 -0.167600378394127 0.000000000000000
-0.046652503311634 -0.178415745496750 0.000000000000000
-0.057887546718121 -0.203387275338173 0.000000000000000
-0.046537227928638 -0.215563654899597 0.000000000000000
-0.079130217432976 -0.217393904924393 0.000000000000000
-0.080138646066189 -0.254277616739273 0.000000000000000
-0.128652423620224 -0.250609636306763 0.000000000000000
-0.136760652065277 -0.288177132606506 0.000000000000000
-0.174178779125214 -0.369084268808365 0.000000000000000
-0.163112878799438 -0.562589466571808 0.000000000000000
-0.188314586877823 -0.649204015731812 0.000000000000000
-0.098066844046116 -1.162414789199829 0.000000000000000
-0.130114138126373 -1.198172330856323 0.000000000000000
-0.138122737407684 -1.095640659332275 0.000000000000000
0.079660184681416 -0.528836369514465 0.000000000000000
0.149093091487885 -0.490487217903137 0.000000000000000
0.094838559627533 -0.391637027263641 0.000000000000000
0.116876490414143 -0.339359521865845 0.000000000000000
0.060925059020519 -0.252359330654144 0.000000000000000
0.079291842877865 -0.285212099552155 0.000000000000000
0.046285636723042 -0.259378075599670 0.000000000000000
0.036167331039906 -0.259920239448547 0.000000000000000
0.018393987789750 -0.237462252378464 0.000000000000000
0.025490395724773 -0.216728419065475 0.000000000000000
0.012518994510174 -0.203257784247398 0.000000000000000
0.013922564685345 -0.193221211433411 0.000000000000000
0.010400422848761 -0.185026094317436 0.000000000000000
0.017038732767105 -0.168394282460213 0.000000000000000
0.010477782227099 -0.164023727178574 0.000000000000000
0.016182504594326 -0.159866645932198 0.000000000000000
0.009456112049520 -0.156052917242050 0.000000000000000
0.014085970818996 -0.147198781371117 0.000000000000000
0.006489828694612 -0.139946565032005 0.000000000000000
0.009299531579018 -0.132208675146103 0.000000000000000
0.005106209311634 -0.128099992871284 0.000000000000000
0.009124219417572 -0.121185772120953 0.000000000000000
0.003994155675173 -0.118146844208241 0.000000000000000
0.009649127721786 -0.113980226218700 0.000000000000000
0.007666266988963 -0.109865836799145 0.000000000000000
0.010108835995197 -0.102600753307343 0.000000000000000
0.006470810621977 -0.095720559358597 0.000000000000000
0.007598888128996 -0.088029004633427 0.000000000000000
0.005773787386715 -0.084143638610840 0.000000000000000
0.008608933538198 -0.079455651342869 0.000000000000000
0.007085229735821 -0.074780173599720 0.000000000000000
0.009373078122735 -0.073265902698040 0.000000000000000
0.007257573306561 -0.070516742765903 0.000000000000000
0.008757345378399 -0.068287238478661 0.000000000000000
0.005471944343299 -0.063092172145844 0.000000000000000
0.006139300763607 -0.062848597764969 0.000000000000000
0.003998961299658 -0.060899153351784 0.000000000000000
0.005860179662704 -0.059266261756420 0.000000000000000
0.004438158124685 -0.056027814745903 0.000000000000000
0.004728580825031 -0.056644834578037 0.000000000000000
0.002054101787508 -0.054434977471828 0.000000000000000
0.004348151385784 -0.052337057888508 0.000000000000000
0.000824272632599 -0.047949023544788 0.000000000000000
0.003567891195416 -0.045719981193542 0.000000000000000
0.000973772257566 -0.045878611505032 0.000000000000000
0.003323651850224 -0.045282371342182 0.000000000000000
0.001339021138847 -0.041519381105900 0.000000000000000
0.003505123779178 -0.041206277906895 0.000000000000000
-0.000414079055190 -0.039857536554337 0.000000000000000
0.002551304176450 -0.039826661348343 0.000000000000000
-0.000423181802034 -0.035687513649464 0.000000000000000
0.002012284472585 -0.033517897129059 0.000000000000000
-0.001012338325381 -0.031882412731647 0.000000000000000
0.002054784446955 -0.031222915276885 0.000000000000000
-0.000264255329967 -0.028693927451968 0.000000000000000
0.002114295028150 -0.028407188132405 0.000000000000000
-0.000179657712579 -0.026825232431293 0.000000000000000
0.002325240522623 -0.026167979463935 0.000000000000000
-0.000607797876000 -0.023050943389535 0.000000000000000
0.001412440091372 -0.021550865843892 0.000000000000000
-0.000392846763134 -0.020504364743829 0.000000000000000
0.002030774950981 -0.018903004005551 0.000000000000000
-0.000832237303257 -0.016115101054311 0.000000000000000
0.001440758816898 -0.014549652114511 0.000000000000000
0.000241910107434 -0.013843851163983 0.000000000000000
0.001896902918816 -0.014689987525344 0.000000000000000
-0.000711314380169 -0.011266676709056 0.000000000000000
0.000437919050455 -0.010531645268202 0.000000000000000
-0.001114848069847 -0.010300740599632 0.000000000000000
0.000467702746391 -0.010732380673289 0.000000000000000
-0.001524143852293 -0.007925920188427 0.000000000000000
-0.000420670025051 -0.007255386561155 0.000000000000000
-0.001129464246333 -0.005917260423303 0.000000000000000
0.001449216157198 -0.006568551063538 0.000000000000000
-0.000183649361134 -0.003841478377581 0.000000000000000
0.000077619217336 -0.002913391217589 0.000000000000000
-0.000951107591391 -0.002019688487053 0.000000000000000
0.002646081149578 -0.002609957009554 0.000000000000000
-0.001038726419210 -0.001264078542590 0.000000000000000
0.001118423417211 0.000350764021277 0.000000000000000
-0.000817788764834 -0.000102659687400 0.000000000000000
-0.000266050919890 0.001906149089336 0.000000000000000
0.000162872485816 -0.000450374558568 0.000000000000000
-0.001786097884178 0.002013588324189 0.000000000000000
-0.000466213561594 -0.000115901231766 0.000000000000000
-0.001664886251092 -0.000159697607160 0.000000000000000
-0.000543665140867 -0.001719830557704 0.000000000000000
-0.001291438937187 0.001549949869514 0.000000000000000
-0.000383684411645 -0.001372033730149 0.000000000000000
-0.001118019223213 -0.000585960224271 0.000000000000000
-0.000485713593662 -0.002878092229366 0.000000000000000
-0.002062128856778 -0.000103455036879 0.000000000000000
-0.001143305562437 -0.002952419221401 0.000000000000000
-0.001398095861077 -0.002029780298471 0.000000000000000
-0.000612577423453 -0.003750886768103 0.000000000000000
-0.001935426145792 -0.000944202765822 0.000000000000000
-0.000616434961557 -0.004311338067055 0.000000000000000
-0.000938758254051 -0.002842651680112 0.000000000000000
0.000120087526739 -0.004963332787156 0.000000000000000
-0.001500077545643 -0.001934563741088 0.000000000000000
-0.000654502771795 -0.004669466987252 0.000000000000000
-0.000930624082685 -0.004077307879925 0.000000000000000
-0.000192430801690 -0.006001695990562 0.000000000000000