# vtk DataFile Version 2.0
B_vector
ASCII
DATASET STRUCTURED_POINTS
DIMENSIONS 257 257 1
ORIGIN 0.000000 0.000000 0.000000
SPACING 8.000000 8.000000 1
CELL_DATA 65536
VECTORS B float
-0.000650566240092 -0.001334064427498 0.000000000000000
0.000796690029591 -0.000764975701052 0.000000000000000
0.000081318285663 0.001059253432288 0.000000000000000
-0.000152725818126 -0.001529551050890 0.000000000000000
-0.000324466101471 -0.000522484645501 0.000000000000000
-0.000741717376047 -0.001056169996833 0.000000000000000
-0.000336836060304 0.000041372970388 0.000000000000000
0.000582996789979 -0.000688265985136 0.000000000000000
-0.000668094645475 -0.000683639911103 0.000000000000000
0.000118509828945 -0.000866199710659 0.000000000000000
0.000097041387616 0.000758973202020 0.000000000000000
0.000909865147805 -0.000044073451073 0.000000000000000
0.000655801711273 0.000790855215500 0.000000000000000
0.000890992028566 -0.000280803531320 0.000000000000000
0.000385795118934 0.001285307232992 0.000000000000000
0.000958464266636 0.000308236886739 0.000000000000000
-0.000302336299124 0.001107198539936 0.000000000000000
0.000231415277168 -0.000021681611840 0.000000000000000
-0.000098726148434 0.001359872231113 0.000000000000000
0.000859697937751 0.000030729386404 0.000000000000000
-0.000088004548850 0.000328815807912 0.000000000000000
0.000135414910964 0.000120686184216 0.000000000000000
0.000175275668917 0.001662415637136 0.000000000000000
0.000898993154721 0.000873271383858 0.000000000000000
0.000096480372701 0.000781371783153 0.000000000000000
0.000639396157761 0.001291363091564 0.000000000000000
0.000088386582306 0.001956048243738 0.000000000000000
0.001291928417478 0.001703238134704 0.000000000000000
0.000658582037564 0.001169261104046 0.000000000000000
0.000934174416835 0.000899069145320 0.000000000000000
0.000709069937144 0.002736038342682 0.000000000000000
0.000759039180585 0.001281859797661 0.000000000000000
0.000181467458818 0.002514903821445 0.000000000000000
0.000717733225730 0.001501117143732 0.000000000000000
0.000185394561483 0.002601321567686 0.000000000000000
0.001172460782901 0.002099329162662 0.000000000000000
0.001082938675988 0.002137807515764 0.000000000000000
0.001158614142523 0.001104494016145 0.000000000000000
0.000755218880437 0.003220218596399 0.000000000000000
0.001698937261487 0.001851902725655 0.000000000000000
0.000205209112040 0.002181422282278 0.000000000000000
0.001368098067054 0.002357152906956 0.000000000000000
-0.000049400335112 0.003278123739259 0.000000000000000
0.000961929635509 0.002987793229154 0.000000000000000
0.001128262196906 0.003731194847573 0.000000000000000
0.001644559651873 0.002800017419828 0.000000000000000
0.001444476964845 0.004504874850506 0.000000000000000
0.001925085755743 0.003749731606577 0.000000000000000
0.000763401174081 0.003977677578520 0.000000000000000
0.001505944829010 0.004033784970947 0.000000000000000
0.000728143187157 0.004632345710440 0.000000000000000
0.002053316607264 0.004012701766217 0.000000000000000
0.001053858122146 0.003969611082610 0.000000000000000
0.001458659066416 0.003625939278684 0.000000000000000
0.001209641451584 0.004709788751032 0.000000000000000
0.001749222670408 0.004268602130429 0.000000000000000
0.000804554897848 0.003773046596759 0.000000000000000
0.001289319813702 0.003991805156677 0.000000000000000
0.000398284216828 0.004124680352964 0.000000000000000
0.001897948846517 0.004335391018075 0.000000000000000
0.000946447160622 0.003542965615335 0.000000000000000
0.001457671672021 0.002983532462354 0.000000000000000
0.000778301042039 0.003475585973247 0.000000000000000
0.000852293407084 0.003053123085244 0.000000000000000
0.000488406575417 0.003025316570425 0.000000000000000
0.000538967761014 0.002483042417364 0.000000000000000
-0.000779714266829 0.003618718194980 0.000000000000000
0.001040141218142 0.003248340403904 0.000000000000000
0.000553703842392 0.004007193242822 0.000000000000000
0.001139736178076 0.002588510180523 0.000000000000000
0.000393549595121 0.003706404063368 0.000000000000000
0.001093907955691 0.003027987294443 0.000000000000000
-0.000160038428217 0.002649028060920 0.000000000000000
0.000818068693077 0.003924110358362 0.000000000000000
-0.000644936789018 0.003859499341904 0.000000000000000
0.000684461522122 0.004169043331862 0.000000000000000
0.000986779642393 0.004147590063398 0.000000000000000
0.001259029589975 0.003142290835497 0.000000000000000
0.001053623064513 0.005073528554895 0.000000000000000
0.001404952089927 0.004465653758350 0.000000000000000
0.000537050575563 0.004951123347133 0.000000000000000
-0.000030660308292 0.004644674291209 0.000000000000000
-0.001392096892166 0.005273281026969 0.000000000000000
-0.000288833496548 0.003855313601946 0.000000000000000
0.000241192881776 0.005499564394262 0.000000000000000
0.000683950390598 0.004044812499416 0.000000000000000
0.000306450733789 0.006694459913404 0.000000000000000
0.000643195326523 0.005201362394846 0.000000000000000
-0.000644125330010 0.006138998615669 0.000000000000000
-0.000528955532531 0.005371336321858 0.000000000000000
-0.002136025034934 0.007133152963117 0.000000000000000
-0.000225284507737 0.006844874374822 0.000000000000000
-0.000120574120222 0.007080907910649 0.000000000000000
0.001035997869876 0.006001695838965 0.000000000000000
0.000548761158268 0.009388069953503 0.000000000000000
0.000047060503117 0.006561289857680 0.000000000000000
0.000315397260028 0.009732335556689 0.000000000000000
0.000574890836921 0.008369886781299 0.000000000000000
-0.000758358901740 0.009034739186174 0.000000000000000
0.002457185048394 0.007523442577537 0.000000000000000
0.000585674766505 0.007784534499690 0.000000000000000
0.000682406921953 0.006025595317169 0.000000000000000
0.001055761606779 0.007481582466101 0.000000000000000
0.001993448034211 0.005234947464261 0.000000000000000
0.000879529172787 0.006838588440990 0.000000000000000
0.001746129201096 0.006320781124104 0.000000000000000
0.000185348303774 0.008024750361789 0.000000000000000
0.001536618222052 0.008503954108768 0.000000000000000
0.001841734542969 0.008531113722229 0.000000000000000
0.001623341538121 0.006083500029178 0.000000000000000
0.001713500056994 0.007911032220437 0.000000000000000
0.000968055787349 0.006157456130613 0.000000000000000
0.001342343724192 0.006804094221663 0.000000000000000
0.001374192083880 0.007490479545055 0.000000000000000
-0.000751148927135 0.007304507438264 0.000000000000000
-0.000355846816411 0.007688119516075 0.000000000000000
0.000822484021808 0.007536267192834 0.000000000000000
-0.000235778140790 0.007113865788889 0.000000000000000
-0.001678772963299 0.007466704434691 0.000000000000000
-0.001061798577747 0.004643807659414 0.000000000000000
-0.002722168657077 0.007189429093934 0.000000000000000
-0.001694969917374 0.006971332304449 0.000000000000000
-0.003428556812572 0.007813438401808 0.000000000000000
-0.001398152481389 0.007680667066860 0.000000000000000
-0.000949700097115 0.007980581716080 0.000000000000000
-0.000187454197235 0.007846981514942 0.000000000000000
-0.000480161880620 0.009182562131768 0.000000000000000
0.000093318192497 0.007272426867404 0.000000000000000
-0.000905573747929 0.008248926598932 0.000000000000000
-0.000405507957219 0.011253299405918 0.000000000000000
-0.001520446131986 0.010703555616010 0.000000000000000
0.003019154160209 0.014146919281549 0.000000000000000
-0.002023783210175 0.009968500556398 0.000000000000000
-0.001448720114274 0.006767054646146 0.000000000000000
-0.002090195392421 0.009410403725335 0.000000000000000
0.001907674517190 0.005804358305806 0.000000000000000
-0.000440080941182 0.008649995803389 0.000000000000000
-0.000872519556956 0.009036795767297 0.000000000000000
-0.002332722017904 0.005557766799462 0.000000000000000
-0.000888048126767 0.005945698671032 0.000000000000000
-0.002665430497885 0.004807870932110 0.000000000000000
-0.002432542819784 0.004729380566227 0.000000000000000
-0.001415449584064 0.008656268764340 0.000000000000000
-0.002085127924215 0.006270449145911 0.000000000000000
-0.001589046200820 0.004781633272074 0.000000000000000
-0.000759950525263 0.008534907670646 0.000000000000000
-0.004204846272766 0.007663483269869 0.000000000000000
-0.003016408319523 0.004085197948874 0.000000000000000
-0.001896437628085 0.005638677449718 0.000000000000000
-0.000176727828848 0.002724581275811 0.000000000000000
0.002412892856685 0.008984492562421 0.000000000000000
0.001227310873482 0.002600792858177 0.000000000000000
0.001278970472402 -0.002328660595149 0.000000000000000
0.002817215146112 0.010332498894271 0.000000000000000
-0.002319689197069 -0.007603990931145 0.000000000000000
0.004527767122370 -0.018302881277245 0.000000000000000
-0.000548491829966 -0.016494319798267 0.000000000000000
-0.000576191717459 -0.025387965357210 0.000000000000000
-0.001703648188778 -0.018439902014778 0.000000000000000
0.007439524366160 -0.017057856141368 0.000000000000000
-0.004652124883209 -0.023124656724999 0.000000000000000
0.007496787156225 -0.026930256912994 0.000000000000000
0.013157569940199 -0.025468248051811 0.000000000000000
0.015226162132678 -0.040522206290726 0.000000000000000
-0.013027229259723 -0.043697725117891 0.000000000000000
0.009432352040334 -0.065054083065093 0.000000000000000
-0.010241410926320 -0.047557687561275 0.000000000000000
0.003487011529076 -0.146106573202400 0.000000000000000
0.005210365759554 -0.122281637374019 0.000000000000000
-0.012052290688765 -0.214468725873107 0.000000000000000
-0.174818350518061 -0.453070636135089 0.000000000000000
0.043628428556294 -0.588970511634097 0.000000000000000
-0.338685898023788 -0.959262188225525 0.000000000000000
0.661241738096428 -1.350987114957020 0.000000000000000
0.626484269247007 -1.388103702119038 0.000000000000000
0.148803148123239 -0.420350650112433 0.000000000000000
-0.074717995825129 -0.368156499421072 0.000000000000000
0.059920046399180 -0.298728771958630 0.000000000000000
-0.045237708601428 -0.145971086033925 0.000000000000000
-0.043494179073987 -0.169835503688683 0.000000000000000
0.009039563664178 -0.179014271102897 0.000000000000000
0.001419755354646 -0.106220856602592 0.000000000000000
-0.020592512542635 -0.085133564499729 0.000000000000000
0.021648491328131 -0.076642538462810 0.000000000000000
0.023240695677930 -0.051666114755221 0.000000000000000
0.002844614835129 -0.060184663427751 0.000000000000000
0.015759812329909 -0.061190057734155 0.000000000000000
0.006535782393981 -0.036052786557279 0.000000000000000
0.007844329395008 -0.034748184715124 0.000000000000000
0.008172812417190 -0.048868065178967 0.000000000000000
0.007740674204224 -0.037462979037004 0.000000000000000
0.006328466532830 -0.023414879348919 0.000000000000000
0.006993927464420 -0.029102621011830 0.000000000000000
0.005191518105187 -0.023074286893198 0.000000000000000
0.004319089729041 -0.021326842342298 0.000000000000000
0.005024172142541 -0.013567528453958 0.000000000000000
0.007494269184813 -0.016839742242805 0.000000000000000
0.002472355092498 -0.017409523975002 0.000000000000000
0.004301070374228 -0.015423427433671 0.000000000000000
0.005111264926518 -0.015081914563076 0.000000000000000
0.006065179027756 -0.013930478510916 0.000000000000000
0.006984682159391 -0.015216639876348 0.000000000000000
0.002235660801998 -0.017141902863333 0.000000000000000
0.004166262234472 -0.018805407300317 0.000000000000000
0.005550298090141 -0.016061023324393 0.000000000000000
0.001782816340641 -0.021308055449064 0.000000000000000
0.002381204102045 -0.016971948887112 0.000000000000000
0.003284228976168 -0.013565763655716 0.000000000000000
0.001749069100476 -0.009890807005624 0.000000000000000
0.005025038582028 -0.010991050001472 0.000000000000000
0.002859284557386 -0.007695619653416 0.000000000000000
0.002637939233504 -0.005258384366392 0.000000000000000
0.002228496146943 -0.004824235881512 0.000000000000000
0.003359044305356 -0.002501444355009 0.000000000000000
0.000157822499897 -0.002163303299972 0.000000000000000
0.002268053911028 -0.000226723627812 0.000000000000000
0.002443497615775 0.004010179095422 0.000000000000000
0.001109876524339 0.000941909930866 0.000000000000000
0.001637084877843 0.002269543440816 0.000000000000000
0.000781664946036 0.003522006389468 0.000000000000000
-0.000146793185289 0.005468403631955 0.000000000000000
0.001568750711521 0.004816001434939 0.000000000000000
0.000379587319200 0.004624924374430 0.000000000000000
0.002973422200714 0.004835223354325 0.000000000000000
0.003121792162146 0.007325697339452 0.000000000000000
0.002207860773250 0.006957476804775 0.000000000000000
0.002386192572223 0.005299916347364 0.000000000000000
0.003610492283962 0.005341895004993 0.000000000000000
0.000828991277277 0.005073949216585 0.000000000000000
0.001408657790483 0.003878067228793 0.000000000000000
0.000861303446525 0.003380524686886 0.000000000000000
0.001247737816870 0.005061211830550 0.000000000000000
0.001706418686432 0.004204230758907 0.000000000000000
0.001807232760634 0.003727083731746 0.000000000000000
0.000694653118023 0.003311924823393 0.000000000000000
0.002749806245790 0.002756993676318 0.000000000000000
0.001657253308851 0.003844829233143 0.000000000000000
0.001061364493667 0.000431575009790 0.000000000000000
0.001531958929224 0.000463173240684 0.000000000000000
0.002386543917620 0.000621462382706 0.000000000000000
0.001321694603900 0.001317125220732 0.000000000000000
0.002090514287711 -0.001038648214620 0.000000000000000
0.001717046800125 -0.000318993444998 0.000000000000000
0.001517360758272 -0.000124332988868 0.000000000000000
0.001704949281179 0.000060338859889 0.000000000000000
0.001874724408804 -0.000800229425843 0.000000000000000
0.002034373755638 0.000593853946681 0.000000000000000
0.003029989421103 0.000243678938449 0.000000000000000
0.000557668178466 0.000900502366893 0.000000000000000
0.001921937305804 -0.000466322067867 0.000000000000000
0.002558925530491 0.001296457627899 0.000000000000000
0.002615466450980 0.000679328153791 0.000000000000000
0.001763099195024 0.001139284986811 0.000000000000000
-0.000201261084227 -0.000342982283753 0.000000000000000
0.001474792455684 0.001414823633239 0.000000000000000
0.001924442774158 0.000016217262770 0.000000000000000
0.002788256725365 0.001623018861052 0.000000000000000
-0.000883099987183 0.000501304284647 0.000000000000000
0.000429435994926 -0.001986202555578 0.000000000000000
0.000466470037105 -0.000980530637186 0.000000000000000
0.001901834034777 -0.001788257192374 0.000000000000000
-0.000866883108963 0.000125025482277 0.000000000000000
0.001469745626102 -0.000411218880316 0.000000000000000
0.000182885080399 -0.000758507278730 0.000000000000000
0.001155427363934 -0.000950825262183 0.000000000000000
-0.000530431162821 -0.000249401046976 0.000000000000000
0.001333511618822 -0.001324636384270 0.000000000000000
0.000779997957638 -0.000815151021484 0.000000000000000
0.001534729304298 -0.000130447414171 0.000000000000000
-0.000612875488637 0.000290564892933 0.000000000000000
0.001227250814844 -0.000416683739238 0.000000000000000
0.000224593139144 0.000083728341792 0.000000000000000
0.001328260290209 -0.000215210924227 0.000000000000000
-0.000591513117072 0.001365118687671 0.000000000000000
0.000848083783403 -0.000600289191902 0.000000000000000
-0.000056241484786 -0.000541877149989 0.000000000000000
0.001061605443751 0.000061144903849 0.000000000000000
-0.001104199898992 0.000814111371317 0.000000000000000
0.001090224830479 0.000068033243740 0.000000000000000
0.000376277126115 0.000156711618525 0.000000000000000
0.001468164137085 -0.000023201686512 0.000000000000000
-0.000747620755164 0.001481922309297 0.000000000000000
0.000811375050517 0.000388434122699 0.000000000000000
-0.000009066473038 0.000651481149831 0.000000000000000
0.001280087458184 0.000955526950001 0.000000000000000
-0.000783468184778 0.002056992845773 0.000000000000000
0.001067771453025 0.001054321516862 0.000000000000000
0.000162022228387 0.001380498631363 0.000000000000000
0.001201463563850 0.001275869930452 0.000000000000000
-0.000478926301857 0.002833334908946 0.000000000000000
0.001036529900142 0.000945138842945 0.000000000000000
0.000497256136872 0.001782257632573 0.000000000000000
0.001975559099831 0.002110613198851 0.000000000000000
-0.000030702304117 0.002720495319593 0.000000000000000
0.002034122605335 0.002011909028222 0.000000000000000
0.000996901226969 0.001502248637861 0.000000000000000
0.001787690185992 0.001429826116161 0.000000000000000
0.000132032931865 0.002980651822442 0.000000000000000
0.001609652656611 0.001697884301161 0.000000000000000
0.000644758697148 0.002793639326905 0.000000000000000
0.002084690413985 0.003320208569827 0.000000000000000
-0.000077341044884 0.003915388666418 0.000000000000000
0.001830425751764 0.003216030605462 0.000000000000000
0.000891074871132 0.003052608527119 0.000000000000000
0.001835070822182 0.002851061663430 0.000000000000000
0.000096913703991 0.004796973654071 0.000000000000000
0.001826892695782 0.002666435302640 0.000000000000000
0.000936705862924 0.003106511196889 0.000000000000000
0.002261375320896 0.003695954567589 0.000000000000000
-0.000121362712202 0.004470780839225 0.000000000000000
0.001995197510148 0.003471815612332 0.000000000000000
0.000716474851394 0.003731863226906 0.000000000000000
0.001707849495776 0.003294326910881 0.000000000000000
-0.000055177028586 0.004782641258988 0.000000000000000
0.001548582213615 0.003204446738542 0.000000000000000
0.000577779682436 0.003700654449262 0.000000000000000
0.001860572042047 0.004044063299342 0.000000000000000
-0.000449572697092 0.004635824146750 0.000000000000000
0.001595132868954 0.003390606455669 0.000000000000000
0.000360265725312 0.003545702560247 0.000000000000000
0.001188586695001 0.003261513013850 0.000000000000000
-0.000434860226633 0.004416544199050 0.000000000000000
0.001312669727085 0.002964738965095 0.000000000000000
0.000607673683869 0.003151697459062 0.000000000000000
0.001721874397109 0.003647132870323 0.000000000000000
-0.000235127698769 0.004283457156784 0.000000000000000
0.001624393543208 0.003344701784443 0.000000000000000
0.000562135974609 0.002954159262665 0.000000000000000
0.001140509645187 0.002930034282692 0.000000000000000
-0.000068725345244 0.004286745997478 0.000000000000000
0.001564965933649 0.002451900304424 0.000000000000000
0.000832717284648 0.003610499114858 0.000000000000000
0.002270103183346 0.004158067193787 0.000000000000000
0.000187909252679 0.005590119643375 0.000000000000000
0.001910772618201 0.004019701508105 0.000000000000000
0.000402172017919 0.004110791253491 0.000000000000000
0.001526010151129 0.004464365918198 0.000000000000000
-0.000273113947187 0.005544693029007 0.000000000000000
0.001634727048318 0.003454924856644 0.000000000000000
0.000051481465439 0.003783055876713 0.000000000000000
0.001349254150748 0.004588228464150 0.000000000000000
-0.000830610657179 0.005395473069588 0.000000000000000
0.001486784864644 0.004735487828995 0.000000000000000
-0.000142604026516 0.004236500094677 0.000000000000000
0.000695447105470 0.004929467927016 0.000000000000000
-0.001034623343942 0.006327912102737 0.000000000000000
0.000575256087979 0.004362759241129 0.000000000000000
-0.001061667989513 0.005206947963518 0.000000000000000
0.000479059923867 0.006894221346658 0.000000000000000
-0.001196345948603 0.007650498096544 0.000000000000000
0.001370307796031 0.006303058578971 0.000000000000000
-0.000229041155977 0.006004664684455 0.000000000000000
0.000732402247162 0.007229073356810 0.000000000000000
-0.000334923381863 0.008769355280841 0.000000000000000
0.000946363852113 0.005372025044323 0.000000000000000
0.000183292558403 0.005542145366339 0.000000000000000
0.001747840915845 0.005860550387876 0.000000000000000
-0.000562304730489 0.007148845180051 0.000000000000000
0.002428352760890 0.005334700558437 0.000000000000000
0.001639543912000 0.003644770628837 0.000000000000000
0.003039572267419 0.005096277839568 0.000000000000000
0.001265883105308 0.006699592981291 0.000000000000000
0.003213131395640 0.003648049459572 0.000000000000000
0.000981910563226 0.005375584351977 0.000000000000000
0.002803562852934 0.005865239838457 0.000000000000000
0.000309006023600 0.007509925702905 0.000000000000000
0.002499025569271 0.005327751881902 0.000000000000000
0.000663999926478 0.003953606104055 0.000000000000000
0.002374112133115 0.005139574622313 0.000000000000000
-0.000016846388833 0.006436751975845 0.000000000000000
0.001492023048376 0.003656963167848 0.000000000000000
-0.000836553471709 0.005359487889470 0.000000000000000
0.001338914175471 0.005425104253908 0.000000000000000
-0.001998329550506 0.007003658909802 0.000000000000000
0.000037266857444 0.006017671425347 0.000000000000000
-0.001581902515329 0.004154387825429 0.000000000000000
-0.000199575336898 0.004544540802120 0.000000000000000
-0.001345275329674 0.008003368536114 0.000000000000000
-0.000246119273480 0.004907909340330 0.000000000000000
-0.001209390483142 0.006247733797998 0.000000000000000
0.000831430667396 0.007332961001987 0.000000000000000
-0.001285211082348 0.008264472837547 0.000000000000000
0.002170376401648 0.006348763679485 0.000000000000000
-0.000741233780742 0.004094537024726 0.000000000000000
0.000733771100714 0.005032596743592 0.000000000000000
-0.001877741217540 0.009372001147755 0.000000000000000
0.001435684123401 0.006618873057356 0.000000000000000
-0.000742501617676 0.005051007054881 0.000000000000000
0.001224203282249 0.006981036516939 0.000000000000000
-0.002214885206317 0.005529488042908 0.000000000000000
0.001675228390863 0.003630031011283 0.000000000000000
-0.001225700307192 0.004205718817206 0.000000000000000
0.001643031665295 0.003466682925349 0.000000000000000
-0.001357188567782 0.004772750444296 0.000000000000000
0.001093083873128 0.005018768615607 0.000000000000000
-0.001160887819035 0.002924546706893 0.000000000000000
0.001778971059748 0.001970942352256 0.000000000000000
-0.002231192187837 0.005719456110438 0.000000000000000
0.000285482778207 0.002070681812890 0.000000000000000
-0.003914380276628 0.001097249818793 0.000000000000000
-0.000254032963939 0.003343972397795 0.000000000000000
-0.003678223247373 0.001233530643139 0.000000000000000
0.001047222212128 -0.000281134068892 0.000000000000000
-0.002380124262466 -0.002956647047376 0.000000000000000
0.000484758862700 -0.005436102289210 0.000000000000000
-0.003331918674624 -0.007224972940045 0.000000000000000
-0.000465277987635 -0.003745030260640 0.000000000000000
-0.000928633342294 -0.003451948421169 0.000000000000000
0.002037211825343 0.001702229125333 0.000000000000000
0.001922529378411 -0.008412170611884 0.000000000000000
0.000811720722696 -0.016163476714353 0.000000000000000
0.003016235762617 -0.015767411300401 0.000000000000000
0.004560024803899 -0.022516790244470 0.000000000000000
-0.007627137651163 -0.028606741402893 0.000000000000000
-0.000442207505422 -0.023667393897323 0.000000000000000
-0.005179711164384 -0.023295612395113 0.000000000000000
-0.000813883484221 -0.032549431748351 0.000000000000000
-0.002257832080937 -0.028810536689719 0.000000000000000
0.002415607363128 -0.040974437992391 0.000000000000000
-0.007417868311144 -0.060920463937899 0.000000000000000
0.003817175095342 -0.035948934096476 0.000000000000000
-0.027035288100487 -0.068673924248213 0.000000000000000
-0.024080948381267 -0.125309028973924 0.000000000000000
-0.023072519748054 -0.088425317159044 0.000000000000000
-0.030521036518224 -0.188660176451644 0.000000000000000
-0.151249867206323 -0.310370123825751 0.000000000000000
-0.113831740146386 -0.229462987623892 0.000000000000000
-0.754819090436692 -0.227548682586361 0.000000000000000
-0.777439115846770 -1.103001577921821 0.000000000000000
-0.182400823807139 -1.671729494389628 0.000000000000000
-0.617499524189642 -0.770422312026105 0.000000000000000
0.580973958826972 -0.056544524379980 0.000000000000000
0.367903956923686 -0.285282688407720 0.000000000000000
0.050080254047619 -0.177226628288129 0.000000000000000
0.056187962732213 -0.115761342353299 0.000000000000000
0.022087544410850 -0.183137957732402 0.000000000000000
0.044941099045695 -0.176350979710699 0.000000000000000
0.026574315188349 -0.143498210812689 0.000000000000000
0.032742052479717 -0.108812593740139 0.000000000000000
0.023278996047162 -0.060929542067056 0.000000000000000
0.041052339297317 -0.083387529137140 0.000000000000000
0.022033452790762 -0.067758167924597 0.000000000000000
0.028210654204392 -0.047462198679779 0.000000000000000
-0.004992398009606 -0.062146136772935 0.000000000000000
0.018438637604522 -0.045507941640794 0.000000000000000
0.004676274958775 -0.043538174767649 0.000000000000000
0.013988303503001 -0.044330801461367 0.000000000000000
0.005400220616684 -0.031069795065063 0.000000000000000
0.006653593761862 -0.024726106705826 0.000000000000000
0.005268909411717 -0.028682398254812 0.000000000000000
0.011212813183265 -0.022231665431379 0.000000000000000
0.004275972960316 -0.022195515901486 0.000000000000000
0.010905708046296 -0.022687360742001 0.000000000000000
0.006114334605446 -0.018261790521864 0.000000000000000
0.008322613210461 -0.014820827272060 0.000000000000000
0.005168760887367 -0.014893400977931 0.000000000000000
0.006834406303471 -0.009125439859065 0.000000000000000
-0.006743176994350 -0.017363319897569 0.000000000000000
-0.003283353981206 -0.013991722881148 0.000000000000000
-0.000769347315386 -0.014517731724360 0.000000000000000
0.001055753426894 -0.018403097746947 0.000000000000000
-0.000937194733640 -0.014701388536493 0.000000000000000
0.003065310673589 -0.013775583259588 0.000000000000000
0.000777462286675 -0.015289854161268 0.000000000000000
0.001905236003622 -0.010675572109934 0.000000000000000
-0.000732402717606 -0.006784401593252 0.000000000000000
0.002552998317495 -0.011979467926069 0.000000000000000
0.001598652679187 -0.006443794896142 0.000000000000000
0.002758512218936 -0.003329073497483 0.000000000000000
0.000897293855890 -0.004961965092846 0.000000000000000
0.001980847190068 -0.003397437909842 0.000000000000000
0.001157179912909 0.001526521381810 0.000000000000000
0.003831658950432 -0.000683335724398 0.000000000000000
0.001350873456341 0.001436670273144 0.000000000000000
0.004619175575387 0.001118375800474 0.000000000000000
0.001161368025138 -0.001700019598064 0.000000000000000
0.003363246590795 0.002373607147679 0.000000000000000
-0.000243115151197 0.003521623425667 0.000000000000000
0.002810139468876 0.001096300009128 0.000000000000000
0.000409733319911 0.003926173397610 0.000000000000000
0.003455907975516 0.003894047417561 0.000000000000000
0.001246563738049 0.005190090444446 0.000000000000000
0.003995766186238 0.003522709397721 0.000000000000000
0.001560299911619 0.001353092877316 0.000000000000000
0.004352637825598 0.002156264123434 0.000000000000000
0.001098021407946 0.003797344911487 0.000000000000000
0.003417061184867 0.001268357086570 0.000000000000000
0.000871312822349 0.003193937812185 0.000000000000000
0.003053183557297 0.003666507318730 0.000000000000000
0.000548285322095 0.003009254351372 0.000000000000000
0.003436018209399 0.001848124425757 0.000000000000000
0.001306107631776 0.002147565557059 0.000000000000000
0.003111394486282 0.001101064456995 0.000000000000000
0.000491317740210 0.001217988039987 0.000000000000000
0.003228318625584 0.000165332046497 0.000000000000000
0.000955322505429 -0.001400116893303 0.000000000000000
0.002023853548981 -0.000525644696309 0.000000000000000
-0.000233805722222 0.001484778966348 0.000000000000000
0.002774611365417 -0.001458948079382 0.000000000000000
0.001547555889957 -0.000717780467986 0.000000000000000
0.002648171974579 -0.000450958067764 0.000000000000000
0.001534909607618 0.000965565790598 0.000000000000000
0.003372301283697 -0.000487115762680 0.000000000000000
0.001955856463218 -0.000784874638397 0.000000000000000
0.002861117720552 -0.001002707286864 0.000000000000000
0.000545110448081 0.001060721422059 0.000000000000000
0.001807377303402 -0.001249074514550 0.000000000000000
0.001417604734574 -0.001274790208109 0.000000000000000
0.002360375830542 -0.000638934062401 0.000000000000000
-0.000575600310344 -0.000426405827639 0.000000000000000
0.002667388336946 -0.000455630036013 0.000000000000000
0.000355112111718 -0.000692488205076 0.000000000000000
0.000384949553076 -0.000058646197022 0.000000000000000
-0.000308412027844 -0.002272638685837 0.000000000000000
-0.000737335433551 0.000083884962067 0.000000000000000
0.001365609427835 -0.002561003848341 0.000000000000000
0.000064603939044 -0.000710892854472 0.000000000000000
0.001332781578581 -0.000825138722428 0.000000000000000
0.000219622729308 0.000382975941517 0.000000000000000
0.000967396525628 -0.002886804485701 0.000000000000000
-0.000160083713587 -0.000186074168476 0.000000000000000
0.000621923741340 -0.001259056099982 0.000000000000000
0.000068830510526 0.000880428135970 0.000000000000000
0.001746444431832 -0.002035045758490 0.000000000000000
0.000806784318760 0.000521335974146 0.000000000000000
0.001061574617401 -0.000401302948784 0.000000000000000
0.000262987360765 0.001029732862301 0.000000000000000
0.001502661078127 -0.001916519717838 0.000000000000000
0.000268996966475 0.001223667779641 0.000000000000000
0.000398500799903 -0.000457093037058 0.000000000000000
-0.000634787280526 0.001363313609473 0.000000000000000
0.001179725381248 -0.001591764782287 0.000000000000000
0.000318428879467 0.000796078694254 0.000000000000000
0.000488015251603 0.000010853101292 0.000000000000000
-0.000194346735760 0.001859748121404 0.000000000000000
0.001198313595207 -0.001558984179314 0.000000000000000
0.000120296397303 0.001737339546027 0.000000000000000
0.000430679574950 0.000263979046946 0.000000000000000
-0.000579662073101 0.002338859219929 0.000000000000000
0.001156919252430 -0.000296811605910 0.000000000000000
0.000038566885772 0.002359753346712 0.000000000000000
0.000485262141677 0.001170941979725 0.000000000000000
-0.000731450266091 0.002999752179820 0.000000000000000
0.001417265313712 -0.000504425616498 0.000000000000000
-0.000246473447091 0.002863932524006 0.000000000000000