# vtk DataFile Version 2.0
B_vector
ASCII
DATASET STRUCTURED_POINTS
DIMENSIONS 257 257 1
ORIGIN 0.000000 0.000000 0.000000
SPACING 8.000000 8.000000 1
CELL_DATA 65536
VECTORS B float
-0.000623601304725 -0.001776019886876 0.000000000000000
0.001227896570206 -0.000977365971916 0.000000000000000
0.000461918518511 0.000365349833340 0.000000000000000
-0.000238879601373 -0.001540112932913 0.000000000000000
-0.000505026753324 -0.000820369251410 0.000000000000000
-0.000620474694151 -0.001738660009118 0.000000000000000
-0.000114561464155 -0.000126602452815 0.000000000000000
0.000655955788066 -0.001044300159851 0.000000000000000
-0.000136384600863 -0.000723909730377 0.000000000000000
0.000683602532912 -0.001248770697775 0.000000000000000
0.000721288305941 0.000413405279602 0.000000000000000
0.000911646321608 -0.001045243814534 0.000000000000000
0.000042785700142 -0.000556325463072 0.000000000000000
0.000405351205149 -0.001757863188951 0.000000000000000
0.000110072830187 -0.000519504049485 0.000000000000000
0.000315861065518 -0.001364085267428 0.000000000000000
-0.000353407045988 -0.000823061495353 0.000000000000000
0.000849349436590 -0.001395071317391 0.000000000000000
0.000803617039631 -0.000356462739297 0.000000000000000
0.000897634571454 -0.000959765532263 0.000000000000000
-0.000240707632642 -0.001332103258775 0.000000000000000
0.000119894354233 -0.001492649093329 0.000000000000000
0.000009763872113 -0.000761621622095 0.000000000000000
0.000590293506249 -0.000259795267770 0.000000000000000
-0.000039042074248 -0.000764412686268 0.000000000000000
0.000898581513156 -0.000305002016734 0.000000000000000
0.000886352136463 0.000695097185058 0.000000000000000
0.000768736331529 0.000483430435243 0.000000000000000
0.000241796459576 0.000089282077288 0.000000000000000
0.000585493400904 -0.000140994258192 0.000000000000000
0.000149246819216 0.000669940397544 0.000000000000000
0.000652386203156 -0.000117222004055 0.000000000000000
0.000290733975676 0.000545705430050 0.000000000000000
0.000589491623525 -0.000020029662817 0.000000000000000
0.000575424760485 0.001144247416751 0.000000000000000
0.000524091794634 0.000540429143076 0.000000000000000
0.000164009660828 0.000298296114439 0.000000000000000
0.000343501961188 -0.000273512592974 0.000000000000000
-0.000325662504462 0.000937655468003 0.000000000000000
0.000830072030609 0.000255901383110 0.000000000000000
-0.000109542592108 0.000451861947181 0.000000000000000
0.001111951942792 0.000079235552410 0.000000000000000
0.000807671035409 0.001093060592052 0.000000000000000
0.000543813778243 0.000061597745347 0.000000000000000
-0.000176478122281 0.000302084808565 0.000000000000000
0.000422615610741 -0.000338253337774 0.000000000000000
0.000110736629899 0.000602703864379 0.000000000000000
0.001183028229900 -0.000093635136052 0.000000000000000
0.000137690652837 0.000214406845786 0.000000000000000
0.000963240695327 0.000671224181145 0.000000000000000
0.000616052342696 0.001971504598110 0.000000000000000
0.001322426649852 0.000682209761275 0.000000000000000
-0.000029535316348 0.001066245092278 0.000000000000000
0.000161390451034 0.001082843634645 0.000000000000000
-0.000102123793714 0.001625271606139 0.000000000000000
0.001128106811261 0.002560948777052 0.000000000000000
0.000107660704352 0.001565360353431 0.000000000000000
0.001184030691384 0.002125209863253 0.000000000000000
0.001066716831021 0.002826955408942 0.000000000000000
0.000943926474032 0.002677408214008 0.000000000000000
0.000546334235677 0.002489644424150 0.000000000000000
0.000636858300976 0.001765618906824 0.000000000000000
0.000262506561732 0.002243336402966 0.000000000000000
0.000629604217110 0.002649170807605 0.000000000000000
0.000254836673109 0.002643900195423 0.000000000000000
0.001117605695604 0.002928213573503 0.000000000000000
0.000926768262040 0.004231717110768 0.000000000000000
0.000856112345247 0.003276510959506 0.000000000000000
0.000241056440963 0.003082825548660 0.000000000000000
0.000633197109933 0.003103215572278 0.000000000000000
-0.000177817845069 0.003637288179413 0.000000000000000
0.000895858611596 0.004279189918761 0.000000000000000
0.000404799407260 0.004008115067760 0.000000000000000
0.001752631284083 0.004409406704131 0.000000000000000
0.001483169637552 0.005492336449156 0.000000000000000
0.000659193269239 0.005262190571258 0.000000000000000
-0.000223669624795 0.004617614355772 0.000000000000000
0.000638894746339 0.004429301830099 0.000000000000000
0.000349825883044 0.004785123979965 0.000000000000000
0.000815122420552 0.005540353131069 0.000000000000000
0.000539570857728 0.004707714529141 0.000000000000000
0.001386446069515 0.005536092698782 0.000000000000000
0.001240743446684 0.006245387971609 0.000000000000000
0.001207132374199 0.006256272069374 0.000000000000000
-0.000032514073219 0.005296048001862 0.000000000000000
0.000946014078129 0.006554621884759 0.000000000000000
0.000229797893844 0.006505192422449 0.000000000000000
0.000563675353893 0.007603200651360 0.000000000000000
-0.000031373413325 0.006144812010465 0.000000000000000
0.000813259449236 0.006280880009616 0.000000000000000
0.001307225767143 0.007065045076208 0.000000000000000
0.002267609358434 0.006890445958957 0.000000000000000
0.001451191991898 0.006271026390269 0.000000000000000
0.001237009909268 0.005738286898527 0.000000000000000
0.000959688377415 0.005314744075583 0.000000000000000
0.001169294763442 0.004696609530988 0.000000000000000
0.001661172435934 0.005002371141105 0.000000000000000
0.002522458365742 0.003981224207927 0.000000000000000
0.001400937154800 0.007444551908224 0.000000000000000
0.000403444116297 0.006191037739450 0.000000000000000
0.000417730106598 0.006426436522469 0.000000000000000
0.000105717771572 0.006406757574965 0.000000000000000
-0.000789784894818 0.006975825583816 0.000000000000000
0.001217318592865 0.007757995506735 0.000000000000000
0.000517017018774 0.008666053323524 0.000000000000000
0.001995393917531 0.007551791877788 0.000000000000000
0.002044203550548 0.009904321290676 0.000000000000000
0.001076996158485 0.006971457184737 0.000000000000000
-0.000085730672509 0.006980368521883 0.000000000000000
0.000326149339198 0.008514421364819 0.000000000000000
0.001562650129482 0.007946612784151 0.000000000000000
0.002715130024042 0.009210267951677 0.000000000000000
0.002005443093582 0.009701076359210 0.000000000000000
0.002668036836542 0.010357546444767 0.000000000000000
0.002531971171255 0.011630223965636 0.000000000000000
0.002151289981958 0.011101225413289 0.000000000000000
-0.000376781127817 0.009669380923948 0.000000000000000
0.000650444810755 0.011894899425159 0.000000000000000
0.000704399221464 0.011371061199036 0.000000000000000
0.001710522541237 0.013589164880552 0.000000000000000
0.000590373183539 0.011792370245571 0.000000000000000
0.001184082979195 0.012146773075118 0.000000000000000
0.001884106646711 0.012495881254372 0.000000000000000
0.002734306201857 0.012352629817589 0.000000000000000
0.001503899619256 0.011142241736159 0.000000000000000
0.001570661699207 0.011594083908687 0.000000000000000
0.001591395808631 0.013443359389999 0.000000000000000
0.001330114644733 0.011906980476950 0.000000000000000
0.000594245031110 0.013963119078305 0.000000000000000
0.001697860825242 0.013888696193395 0.000000000000000
0.001711250470477 0.015030590593769 0.000000000000000
0.002387046722225 0.015301950546251 0.000000000000000
0.000754650870961 0.014215953763759 0.000000000000000
0.000444320300635 0.014649483709445 0.000000000000000
0.002358926606410 0.014963553425664 0.000000000000000
0.001772862897281 0.016200863637279 0.000000000000000
0.001448270539600 0.015025621722967 0.000000000000000
0.003012709115783 0.012368717285648 0.000000000000000
0.002448976763955 0.014271566163944 0.000000000000000
0.000266926198179 0.013621082486349 0.000000000000000
0.000309994427860 0.014423584684699 0.000000000000000
0.001073901767827 0.014446634213160 0.000000000000000
0.001647371856088 0.016121217810998 0.000000000000000
0.002267650794165 0.016809404394436 0.000000000000000
0.002509705669696 0.017223467950383 0.000000000000000
0.001877754409562 0.015549705966152 0.000000000000000
0.002264811228512 0.015475237248795 0.000000000000000
0.002179740975553 0.017633909261723 0.000000000000000
0.001525756577506 0.017659810304705 0.000000000000000
0.002916764185504 0.015149971784805 0.000000000000000
0.001199374835325 0.014887761138887 0.000000000000000
0.001528113213374 0.014962342284808 0.000000000000000
0.001189799699344 0.016659013219302 0.000000000000000
0.000974962303040 0.014186524280609 0.000000000000000
0.000868223452560 0.015320819255373 0.000000000000000
0.001317840360575 0.016656458136087 0.000000000000000
0.000120935133240 0.019240050136441 0.000000000000000
-0.000650021240060 0.016074702528787 0.000000000000000
-0.000537143002117 0.017565103964892 0.000000000000000
0.000352235118067 0.018052388836029 0.000000000000000
0.001870406199665 0.016557322923954 0.000000000000000
0.003013219502769 0.013858723219426 0.000000000000000
0.001248630467827 0.013033095545451 0.000000000000000
0.000514773578497 0.012761549739026 0.000000000000000
0.000698724471954 0.016156407062799 0.000000000000000
-0.000116686596163 0.010684647069380 0.000000000000000
0.000173564122841 0.013205010383313 0.000000000000000
0.001052611620181 0.014972344790551 0.000000000000000
0.001607078738487 0.014053412486594 0.000000000000000
0.003424119669528 0.008934166404010 0.000000000000000
0.000613249643686 0.007157174956754 0.000000000000000
0.000757395808107 0.007032358581727 0.000000000000000
0.000860321262868 0.010992988461032 0.000000000000000
0.000909068817295 0.006479739264083 0.000000000000000
-0.000496281055155 0.007851182162011 0.000000000000000
0.001116283251338 0.009148195905880 0.000000000000000
-0.000288771378934 0.009960782700134 0.000000000000000
0.000661084316472 0.006887107200636 0.000000000000000
-0.001716026413531 0.006979998021715 0.000000000000000
0.000480644833592 0.008333980937332 0.000000000000000
0.000515547470146 0.011544522720733 0.000000000000000
0.002172126309557 0.010690938352967 0.000000000000000
-0.000053224481830 0.012786371949006 0.000000000000000
-0.000432219713939 0.014480330180716 0.000000000000000
-0.000541430473083 0.018189482135048 0.000000000000000
-0.000434598427012 0.012386708818628 0.000000000000000
-0.000569521703463 0.011031830040732 0.000000000000000
0.001970923023721 0.013771321718714 0.000000000000000
0.000707925213646 0.013750903295870 0.000000000000000
0.003789917287415 0.010196930106190 0.000000000000000
0.000944616273981 0.009432121011176 0.000000000000000
0.000054501129760 0.010102579019976 0.000000000000000
-0.000028951906820 0.011133651755141 0.000000000000000
0.001015859195690 0.010892108220541 0.000000000000000
-0.001398311218252 0.008813485408854 0.000000000000000
0.000644282452533 0.013724825818321 0.000000000000000
-0.000569829700803 0.012764461438479 0.000000000000000
0.002708163185283 0.014805385284447 0.000000000000000
-0.000329697539179 0.016634709905422 0.000000000000000
0.000774195162041 0.017414221746889 0.000000000000000
0.000045585340212 0.023459858077229 0.000000000000000
0.000675126863893 0.022685737662925 0.000000000000000
-0.000498209234308 0.022507327716089 0.000000000000000
0.002266386118779 0.027495379440983 0.000000000000000
0.002065259426910 0.029034395081653 0.000000000000000
0.004278510170070 0.024063808149224 0.000000000000000
0.001783350314467 0.022748382453282 0.000000000000000
0.001788613260833 0.024339118935208 0.000000000000000
-0.001932689498912 0.024142951610275 0.000000000000000
0.001174350812647 0.023217210189085 0.000000000000000
-0.002551831579722 0.023484053633422 0.000000000000000
-0.000836303256414 0.024029633002801 0.000000000000000
-0.001067753507466 0.028262064874163 0.000000000000000
0.001729907061996 0.027156844579396 0.000000000000000
-0.000203475061482 0.030086363911144 0.000000000000000
0.003277970564643 0.033141782182649 0.000000000000000
0.000659769958537 0.034521456295728 0.000000000000000
0.002688842559921 0.033205629069424 0.000000000000000
0.000869659243463 0.031269245892130 0.000000000000000
0.002333967761083 0.033411267894453 0.000000000000000
-0.000162750217602 0.033153247001640 0.000000000000000
0.002367829580936 0.031749287779564 0.000000000000000
0.000331091362724 0.033810264841762 0.000000000000000
0.002206316851040 0.033686005048644 0.000000000000000
-0.000337610843702 0.035499204075911 0.000000000000000
0.000806993359566 0.034511992575875 0.000000000000000
-0.000923287788614 0.034587908156317 0.000000000000000
-0.000434677615304 0.034101709430563 0.000000000000000
-0.000659290766825 0.035114823356345 0.000000000000000
0.000161255218281 0.032425830983617 0.000000000000000
-0.001987199041696 0.030619627606065 0.000000000000000
0.000551891029127 0.031494725695786 0.000000000000000
-0.002086249546093 0.029801471954054 0.000000000000000
-0.002402280402712 0.023160501767164 0.000000000000000
-0.003101996231579 0.021415264549249 0.000000000000000
-0.001422002996689 0.020514623418328 0.000000000000000
-0.003327010500569 0.018065974574896 0.000000000000000
0.000399834206587 0.013889521382787 0.000000000000000
-0.003889773934829 0.014046635356044 0.000000000000000
-0.002122626689670 0.007217232756439 0.000000000000000
-0.001655796559808 0.011372589152359 0.000000000000000
-0.002833519899367 0.009462166157476 0.000000000000000
-0.005576673514672 0.003723275051727 0.000000000000000
-0.000350254492482 0.003740742093208 0.000000000000000
-0.004101478655581 0.007058864917235 0.000000000000000
-0.000026923472760 0.002454406696750 0.000000000000000
-0.003287058393006 0.002611712885943 0.000000000000000
-0.001779810283561 -0.001732412045189 0.000000000000000
-0.002106283516576 0.003058837135010 0.000000000000000
-0.002309189027979 0.001009218466780 0.000000000000000
-0.004231250659381 0.002430539637948 0.000000000000000
-0.001823202668076 0.001993935226847 0.000000000000000
-0.003407453185051 0.001133763410059 0.000000000000000
-0.004734082907874 -0.001371099929529 0.000000000000000
0.001085282909850 0.001293617866447 0.000000000000000
-0.000447598800478 0.001024124494233 0.000000000000000
0.001997472762574 0.001263346569209 0.000000000000000
-0.001292983007997 0.000213322007045 0.000000000000000
0.000386089089329 -0.002177904031736 0.000000000000000
0.000492226335223 -0.001311272985799 0.000000000000000
0.001941559990669 -0.001873582406352 0.000000000000000
-0.000602118601017 0.000298336215676 0.000000000000000
0.001743828016407 -0.000679272159575 0.000000000000000
0.000609945740863 -0.000767825696060 0.000000000000000
0.001146856351364 -0.000571533410612 0.000000000000000
-0.000117949105647 -0.000347861295701 0.000000000000000
0.001654452633023 -0.001755341716333 0.000000000000000
0.000796265588042 -0.001464008441702 0.000000000000000
0.001598697140848 -0.000932315004437 0.000000000000000
-0.000234387853156 -0.000429194423991 0.000000000000000
0.001428634806359 -0.001348747163795 0.000000000000000
0.000407447246804 -0.001040091171727 0.000000000000000
0.001329495116964 -0.000880703199063 0.000000000000000
-0.000322563843320 0.000458145919175 0.000000000000000
0.001149119317941 -0.001199068679689 0.000000000000000
0.000381489303101 -0.001022403528627 0.000000000000000
0.001315730642666 -0.000695974966224 0.000000000000000
-0.000510166852860 -0.000107284500049 0.000000000000000
0.001327766130505 -0.000927213346611 0.000000000000000
0.000719331229863 -0.000918941339503 0.000000000000000
0.001674678733042 -0.000812023185568 0.000000000000000
-0.000245897996265 0.000327718481605 0.000000000000000
0.001208506558996 -0.001079047992642 0.000000000000000
0.000561467368499 -0.000724959141073 0.000000000000000
0.001682292329572 0.000134437613551 0.000000000000000
-0.000149857593276 0.000753353618447 0.000000000000000
0.001536093936054 -0.000272132930349 0.000000000000000
0.000771068641605 -0.000003952545080 0.000000000000000
0.001893940951771 -0.000229009051615 0.000000000000000
-0.000174622587282 0.001019929664868 0.000000000000000
0.001141921807584 -0.000401181976895 0.000000000000000
0.000428435585867 -0.000410032552354 0.000000000000000
0.001540786616850 0.000367298735315 0.000000000000000
-0.000492872381290 0.001073957297416 0.000000000000000
0.001499484332787 0.000014150391906 0.000000000000000
0.000423770844087 -0.000016679615460 0.000000000000000
0.001450569815085 -0.000093407557092 0.000000000000000
-0.000172107074868 0.000967662714947 0.000000000000000
0.001235558745557 -0.000299810555212 0.000000000000000
0.000384503138357 -0.000310209703080 0.000000000000000
0.001856084113881 0.000421254367216 0.000000000000000
-0.000148662771487 0.001057121488001 0.000000000000000
0.001558169317043 -0.000362586644743 0.000000000000000
0.000970035152986 -0.000226499165665 0.000000000000000
0.002007922751980 0.000061593224820 0.000000000000000
0.000027398241835 0.001042564605889 0.000000000000000
0.001369556753629 0.000335424693158 0.000000000000000
0.000526079825374 0.000841179048395 0.000000000000000
0.001914323224934 0.001132163336253 0.000000000000000
0.000056123952697 0.001921860572590 0.000000000000000
0.001478101292612 0.000836324078135 0.000000000000000
0.000548322146562 0.001107457900124 0.000000000000000
0.001847020711832 0.001328254560544 0.000000000000000
-0.000077811935521 0.002169233447728 0.000000000000000
0.001568524508045 0.001399550291016 0.000000000000000
0.000834719541977 0.001697367378585 0.000000000000000
0.001972968119492 0.002166254722120 0.000000000000000
-0.000051784505679 0.002944611788318 0.000000000000000
0.001546800838056 0.002291296976664 0.000000000000000
0.000857434005681 0.002082395735242 0.000000000000000
0.002128948252528 0.002411539799257 0.000000000000000
0.000105084491156 0.003674501156981 0.000000000000000
0.001390213717900 0.002163691049988 0.000000000000000
0.000588547013830 0.002523159490572 0.000000000000000
0.002096120435351 0.003390677876666 0.000000000000000
0.000026280227655 0.003689936965599 0.000000000000000
0.001846326948179 0.003215563424893 0.000000000000000
0.001039127325376 0.003651055829483 0.000000000000000
0.002204322693606 0.003589663045364 0.000000000000000
0.000357319048562 0.004735608580082 0.000000000000000
0.001867070077658 0.003951139605926 0.000000000000000
0.000851829751135 0.003994306407260 0.000000000000000
0.002288337199256 0.004758590276012 0.000000000000000
0.000113287632739 0.005847602597027 0.000000000000000
0.001749217202341 0.004385018235593 0.000000000000000
0.001255742626903 0.005103921401147 0.000000000000000
0.002161955044939 0.004814373035840 0.000000000000000
0.000131733838079 0.005684709850600 0.000000000000000
0.001591007532048 0.004523485608120 0.000000000000000
0.000632494063544 0.004613371275087 0.000000000000000
0.001799716857848 0.005520203360403 0.000000000000000
-0.000032151247425 0.006995135131452 0.000000000000000
0.002081412692504 0.005633485648010 0.000000000000000
0.001017668526512 0.006322187823297 0.000000000000000
0.002535114124295 0.006752110824558 0.000000000000000
-0.000137573042525 0.006700045655368 0.000000000000000
0.001899638737974 0.004652193724059 0.000000000000000
0.001463713339790 0.005191211682651 0.000000000000000
0.002538649580701 0.005096147862169 0.000000000000000
0.000510932178927 0.006563867553534 0.000000000000000
0.003035969358447 0.005477964532722 0.000000000000000
0.002197692428294 0.004234496158708 0.000000000000000
0.003335613389349 0.005681500792840 0.000000000000000
0.000489917154089 0.006824766257830 0.000000000000000
0.002018033097164 0.005389382103510 0.000000000000000
0.001574682031823 0.006065121984116 0.000000000000000
0.002654544716793 0.007175321241667 0.000000000000000
0.000554364802300 0.008069482286554 0.000000000000000
0.002413253492600 0.007188398921564 0.000000000000000
0.001330203606782 0.007704527008568 0.000000000000000
0.002651795182679 0.009126162209844 0.000000000000000
0.000422044697223 0.009674994535185 0.000000000000000
0.001981351548326 0.007391273007369 0.000000000000000
0.001228923945081 0.006679185052365 0.000000000000000
0.003245876730658 0.008076359237644 0.000000000000000
0.000926965794238 0.009217387316142 0.000000000000000
0.003200744650687 0.008158981319472 0.000000000000000
0.002541717750244 0.009052020092098 0.000000000000000
0.003923039560430 0.009515453655807 0.000000000000000
0.000986954891312 0.011606039461200 0.000000000000000
0.002332372485831 0.010725599649150 0.000000000000000
0.001366073160603 0.009551485004622 0.000000000000000
0.003112143654560 0.010305496660611 0.000000000000000
0.000894456396497 0.012735839226083 0.000000000000000
0.002775072346128 0.010796453096704 0.000000000000000
0.001762774843531 0.012077777854423 0.000000000000000
0.003644444671491 0.012798512542945 0.000000000000000
0.001249836449542 0.011585923100215 0.000000000000000
0.003612536605915 0.010184999736370 0.000000000000000
0.002393951557360 0.009881042334973 0.000000000000000
0.004133827776092 0.009852782801289 0.000000000000000
0.001546105055176 0.012767654500617 0.000000000000000
0.003520643648366 0.011828878895845 0.000000000000000
0.002314348313357 0.011319972880570 0.000000000000000
0.003886200226014 0.013146930115077 0.000000000000000
0.000851078803443 0.014081581576433 0.000000000000000
0.002867855181194 0.012085338472499 0.000000000000000
0.001413768224306 0.013229309902957 0.000000000000000
0.002876399810149 0.013218612850744 0.000000000000000
0.001251355035880 0.014456501697321 0.000000000000000
0.003573005192582 0.013069460013411 0.000000000000000
0.002042714611296 0.012088043460152 0.000000000000000
0.003159225016771 0.013393905763938 0.000000000000000
0.000992338329291 0.014510425664413 0.000000000000000
0.003164907142257 0.011961589492786 0.000000000000000
0.001156020669866 0.012523801683047 0.000000000000000
0.002462466847208 0.013543802071735 0.000000000000000
0.000184555764294 0.015868316749762 0.000000000000000
0.002585058175148 0.014188548688012 0.000000000000000
0.001861577048441 0.015357363116389 0.000000000000000
0.003013345539114 0.014505188059455 0.000000000000000
0.001016014109794 0.015085290938905 0.000000000000000
0.002377159923623 0.013503766655914 0.000000000000000
0.002239653166886 0.014251348118888 0.000000000000000
0.003623112504276 0.014801055467300 0.000000000000000
0.001228835241212 0.015394939846327 0.000000000000000
0.003270209208559 0.012962373733485 0.000000000000000
0.002911318121651 0.013282192549362 0.000000000000000
0.003438330378259 0.013487223999546 0.000000000000000
0.000993350384657 0.014448328598721 0.000000000000000
0.002564749883228 0.013753876384030 0.000000000000000
0.001769700215679 0.015398573353854 0.000000000000000
0.003651451054543 0.015231794972517 0.000000000000000
0.001137565898782 0.016483385266251 0.000000000000000
0.002568396817034 0.012996662558503 0.000000000000000
0.002685233546940 0.014625866333341 0.000000000000000
0.004146617173247 0.014830808486198 0.000000000000000
0.000835299759202 0.013862165953373 0.000000000000000
0.003257661240365 0.012621555299224 0.000000000000000
0.001946865626846 0.012839541321597 0.000000000000000
0.003800244116459 0.012580819910369 0.000000000000000
0.001421730484665 0.012309790041116 0.000000000000000
0.001445730221079 0.010200981312006 0.000000000000000
0.000368412588344 0.011146132164210 0.000000000000000
0.002398085452979 0.012234390396250 0.000000000000000
0.000512144345969 0.011907749056152 0.000000000000000
0.001758693535060 0.008894011556438 0.000000000000000
0.000655457761303 0.008389461846379 0.000000000000000
0.001375986487024 0.007724004646863 0.000000000000000
0.000142064748655 0.008983262988496 0.000000000000000
0.000858035035906 0.007377323253769 0.000000000000000
-0.000839607851323 0.009137134830185 0.000000000000000
0.001177071369194 0.009004752760535 0.000000000000000
-0.001794805199835 0.010309298784736 0.000000000000000
-0.001024973241337 0.008271153543644 0.000000000000000
-0.000675027195337 0.009021793010611 0.000000000000000
0.001249505441175 0.008741854646702 0.000000000000000
-0.001220051896288 0.009828410068054 0.000000000000000
-0.000022695968621 0.009655137279004 0.000000000000000
-0.002095353031613 0.012084798608190 0.000000000000000
0.001158486878417 0.011532487068540 0.000000000000000
-0.000107442182469 0.011451560747361 0.000000000000000
-0.001439520735943 0.010538539038653 0.000000000000000
0.000319618378575 0.011138440903558 0.000000000000000
0.002663508880225 0.009793417127666 0.000000000000000
0.000311139739490 0.010330070625938 0.000000000000000
0.002756883305693 0.009129685165670 0.000000000000000
0.000277773120841 0.009525072978992 0.000000000000000
0.001998238525376 0.011132704765763 0.000000000000000
-0.000103517171663 0.010328454749937 0.000000000000000
-0.000020912745077 0.011500257117674 0.000000000000000
-0.000741631359009 0.014503684720193 0.000000000000000
0.002517739152604 0.011795244344456 0.000000000000000
-0.000428448151142 0.014892437783415 0.000000000000000
-0.000436331166146 0.015461270655353 0.000000000000000
-0.001440489001082 0.018383874330690 0.000000000000000
0.001673124501891 0.020394918836748 0.000000000000000
-0.000601694878279 0.020374563305979 0.000000000000000
0.000489320534364 0.019925525785000 0.000000000000000
-0.000249400477680 0.025214924803066 0.000000000000000
0.003420416522947 0.022045432915974 0.000000000000000
0.001184585564194 0.022487271957637 0.000000000000000
0.002338793203708 0.021930470822511 0.000000000000000
-0.001516014262561 0.020982935784517 0.000000000000000
0.000276715311044 0.022315730176467 0.000000000000000
-0.002577803919435 0.023644840446364 0.000000000000000
-0.001768113935709 0.023893160847079 0.000000000000000
-0.002482145529200 0.026570097645714 0.000000000000000
0.001377341926713 0.024234535299015 0.000000000000000
-0.000795144929867 0.024272555611801 0.000000000000000
-0.000078838980253 0.025216611437532 0.000000000000000
-0.001171827872053 0.029425222445746 0.000000000000000
0.003073035183593 0.029126446713228 0.000000000000000
0.000137277509622 0.028288699949190 0.000000000000000
0.001619055589299 0.029289941647384 0.000000000000000
0.000407793250818 0.031560583491398 0.000000000000000
0.003354186324750 0.027700084410435 0.000000000000000
0.000149527546200 0.028271231979196 0.000000000000000
0.001267333182243 0.027525621974848 0.000000000000000
-0.001529492759690 0.028473440576276 0.000000000000000
0.002441897160627 0.030236105876194 0.000000000000000
-0.001836411631241 0.027979188008257 0.000000000000000
-0.000754527986317 0.027543133924872 0.000000000000000
-0.001012044437640 0.030491794078582 0.000000000000000
0.001140221038075 0.026716312629102 0.000000000000000
-0.002633443602696 0.024610471018907 0.000000000000000
-0.000758871005252 0.027410876044389 0.000000000000000
0.001559530832119 0.028677683523831 0.000000000000000
0.001111997707627 0.027301996475496 0.000000000000000
-0.002892028325242 0.020604727340069 0.000000000000000
-0.002629060661698 0.019611271395669 0.000000000000000
-0.003227526187069 0.017238592958612 0.000000000000000
-0.001083396240241 0.016806757307214 0.000000000000000
-0.005392486046640 0.012280362910263 0.000000000000000
-0.001247506428289 0.011382765426523 0.000000000000000
-0.004997313224812 0.010474473342364 0.000000000000000
-0.002335186161767 0.007579950759624 0.000000000000000
-0.001398329727365 0.006611484262069 0.000000000000000
-0.004077092895477 0.007168049477599 0.000000000000000
-0.005039618204079 0.005254840630103 0.000000000000000
-0.002031752244457 0.004650304402265 0.000000000000000
-0.007287878983002 0.004879379063253 0.000000000000000
-0.004697323679747 0.001047024029337 0.000000000000000
-0.000755585376930 0.002164413058066 0.000000000000000
-0.001379944294668 0.000926876361688 0.000000000000000
-0.003061695434442 -0.002057342379872 0.000000000000000
-0.001761884299854 0.001155380559500 0.000000000000000
-0.002463219006457 -0.000655479916053 0.000000000000000
-0.000534527068624 -0.004926672244777 0.000000000000000
-0.006168212806472 0.002743456473241 0.000000000000000
-0.001221334958585 -0.002470522905651 0.000000000000000
-0.002818771467097 -0.002103708374667 0.000000000000000
-0.000299221467809 0.000070954580276 0.000000000000000
-0.000735073861500 -0.002588555104102 0.000000000000000
-0.000961071862264 -0.000329512040119 0.000000000000000
0.001358750267104 -0.002709139223941 0.000000000000000
0.000028005791977 -0.000838283534893 0.000000000000000
0.000924442507374 -0.000946214753122 0.000000000000000
-0.000103373837373 0.000357831423794 0.000000000000000
0.000843350680271 -0.003033068000463 0.000000000000000
0.000065555228663 -0.000179282922849 0.000000000000000
0.000515555395556 -0.001330840003296 0.000000000000000
0.000087489244559 0.000128828577010 0.000000000000000
0.001402614326116 -0.002875899052755 0.000000000000000
0.000419483830309 -0.000259118250087 0.000000000000000
0.000568482403731 -0.001526212415173 0.000000000000000
0.000161562061692 0.000025343857922 0.000000000000000
0.001226984199656 -0.002823739345054 0.000000000000000
0.000382766362799 -0.000138787585179 0.000000000000000
0.000821663745737 -0.000813255886808 0.000000000000000
-0.000046842662262 0.000688272439530 0.000000000000000
0.001326727384198 -0.002261397918955 0.000000000000000
0.000649607766507 -0.000244535128649 0.000000000000000
0.000597401854118 -0.000886274232597 0.000000000000000
-0.000164910471434 0.000412966584504 0.000000000000000
0.001340159862267 -0.002688138980861 0.000000000000000
0.000518980151939 0.000050990607147 0.000000000000000
0.000504903589561 -0.000539802322871 0.000000000000000
-0.000170288015207 0.001029692484750 0.000000000000000
0.001507411371866 -0.002111021534787 0.000000000000000
0.000537323438600 0.000600103631727 0.000000000000000
0.000449946590562 0.000099980193163 0.000000000000000
-0.000184058702688 0.001210601921167 0.000000000000000
0.001587521774680 -0.002029187783426 0.000000000000000
0.000631190167369 0.000963284561361 0.000000000000000
0.000494536014833 -0.000123256147596 0.000000000000000
0.000062056292581 0.001495317083871 0.000000000000000