# vtk DataFile Version 2.0
B_vector
ASCII
DATASET STRUCTURED_POINTS
DIMENSIONS 257 257 1
ORIGIN 0.000000 0.000000 0.000000
SPACING 8.000000 8.000000 1
CELL_DATA 65536
VECTORS B float
-0.000714959746003 -0.001756161718782 0.000000000000000
0.001113680110743 -0.000733258940805 0.000000000000000
0.000164436286801 0.000765862294489 0.000000000000000
-0.000183044755111 -0.001341360003368 0.000000000000000
-0.000313493176668 -0.000502295888704 0.000000000000000
-0.000715246585268 -0.001355581522691 0.000000000000000
-0.000247264454551 0.000171789930360 0.000000000000000
0.000757047959575 -0.000638305186765 0.000000000000000
-0.000383765564416 -0.000610055908579 0.000000000000000
0.000268034509021 -0.000979365658251 0.000000000000000
0.000306212995442 0.000698091949296 0.000000000000000
0.000854284610952 -0.000837351470014 0.000000000000000
0.000357051250347 0.000144630835995 0.000000000000000
0.000544276670525 -0.001185118258352 0.000000000000000
0.000217066047873 -0.000151648359332 0.000000000000000
0.000824420900514 -0.001011035413592 0.000000000000000
-0.000256929543047 -0.000674573523083 0.000000000000000
0.000548184263424 -0.001445632952218 0.000000000000000
0.000293629147230 -0.000152475261900 0.000000000000000
0.000941537635459 -0.000974538525411 0.000000000000000
0.000166179817196 -0.000934258511501 0.000000000000000
0.000302212479767 -0.001425721580793 0.000000000000000
0.000162601179331 -0.000311465254174 0.000000000000000
0.000887070474220 -0.000687530290149 0.000000000000000
0.000204880726184 -0.001195480661801 0.000000000000000
0.000841776234734 -0.000626880463247 0.000000000000000
0.000647956068928 -0.000262258279396 0.000000000000000
0.001115545132749 -0.000478296318457 0.000000000000000
0.000543781186080 -0.000867305876706 0.000000000000000
0.000539464145338 -0.001710807383144 0.000000000000000
0.000357228496128 -0.000220519683079 0.000000000000000
0.000909329657536 -0.002046024204653 0.000000000000000
-0.000024046305448 -0.000991611141636 0.000000000000000
0.000286200108983 -0.001631859959621 0.000000000000000
0.000232341501586 -0.001007119622010 0.000000000000000
0.000815976344144 -0.001732182077469 0.000000000000000
0.000563817662735 -0.001420242938944 0.000000000000000
0.000564883994330 -0.002714123008137 0.000000000000000
0.000320398657940 -0.000992810000936 0.000000000000000
0.001052112593570 -0.002152060637827 0.000000000000000
0.000155031455864 -0.002160290508319 0.000000000000000
0.001211422870890 -0.001957088321634 0.000000000000000
0.000591051626857 -0.001596225005384 0.000000000000000
0.000986420210017 -0.002462751211583 0.000000000000000
0.000491531046891 -0.001700405435813 0.000000000000000
0.000885877106520 -0.002939611088602 0.000000000000000
0.000664583654361 -0.002092982878796 0.000000000000000
0.001627921667443 -0.002995582931523 0.000000000000000
0.000361250513399 -0.002843069028245 0.000000000000000
0.000873986058268 -0.003024616575621 0.000000000000000
0.000456632156353 -0.001924208654913 0.000000000000000
0.001239582926350 -0.002999978566948 0.000000000000000
0.000484974895052 -0.002258834697312 0.000000000000000
0.000603735872862 -0.003166090889643 0.000000000000000
0.000246973545191 -0.002025904641689 0.000000000000000
0.001413882263699 -0.002598642160975 0.000000000000000
0.000175287171318 -0.002789344671912 0.000000000000000
0.000670154584094 -0.002515421378451 0.000000000000000
0.000564458969186 -0.001952073591231 0.000000000000000
0.001458010976769 -0.002330212905261 0.000000000000000
0.000768986496274 -0.002216086627537 0.000000000000000
0.000937659540997 -0.003527975331022 0.000000000000000
0.000689688053224 -0.002347654003878 0.000000000000000
0.001172334884820 -0.003506137070538 0.000000000000000
0.000485514003168 -0.002935408118182 0.000000000000000
0.000581517046679 -0.002991558491291 0.000000000000000
0.000571864558475 -0.002462180501528 0.000000000000000
0.001501948616156 -0.003131528121942 0.000000000000000
0.001044659472180 -0.002766688549469 0.000000000000000
0.001151717935160 -0.004102932823120 0.000000000000000
0.000556181635059 -0.002604589147861 0.000000000000000
0.001098045304680 -0.003523341422058 0.000000000000000
0.000116182930228 -0.003517776557270 0.000000000000000
0.001497699240377 -0.002861317328877 0.000000000000000
0.000705932826541 -0.002354549804813 0.000000000000000
0.001145212363451 -0.002774326074467 0.000000000000000
0.000569299930349 -0.002181545095716 0.000000000000000
0.001108881919805 -0.002754469541969 0.000000000000000
0.000950772399197 -0.001858236284631 0.000000000000000
0.001355844499679 -0.001745929076433 0.000000000000000
0.000594592831035 -0.001851672484659 0.000000000000000
0.000848619289648 -0.002070891557709 0.000000000000000
0.000452115072468 -0.001194376141785 0.000000000000000
0.001192212364379 -0.001887289044804 0.000000000000000
0.000967511915415 -0.001208205586898 0.000000000000000
0.001067865189358 -0.002330572143960 0.000000000000000
0.000503956013759 -0.001246243154169 0.000000000000000
0.001245263662028 -0.001808778448327 0.000000000000000
0.000108330524356 -0.001802059384418 0.000000000000000
0.000577714742543 -0.002058003072377 0.000000000000000
0.000391927724826 -0.001364998234689 0.000000000000000
0.001176507997766 -0.002159951882163 0.000000000000000
0.000873450824733 -0.001762154459714 0.000000000000000
0.000843791196458 -0.002416704032859 0.000000000000000
0.000589004393778 -0.001151154349779 0.000000000000000
0.001409207228089 -0.002353502431299 0.000000000000000
0.000562929480105 -0.001532454712187 0.000000000000000
0.000748819996282 -0.002501585001595 0.000000000000000
0.000606553389945 -0.001533146624925 0.000000000000000
0.001641913051998 -0.003150605253966 0.000000000000000
0.001230223647589 -0.002072153923173 0.000000000000000
0.001152960899719 -0.003539232126478 0.000000000000000
0.000701553522027 -0.001915059201284 0.000000000000000
0.001507786752862 -0.003050298874198 0.000000000000000
0.000232135048889 -0.002764013986335 0.000000000000000
0.001038051055615 -0.003340619456661 0.000000000000000
0.000355839885326 -0.002627559354362 0.000000000000000
0.000563937086985 -0.004152914394587 0.000000000000000
0.000093145852160 -0.003056522508898 0.000000000000000
0.000526911621258 -0.004361429461587 0.000000000000000
0.000341865676751 -0.003539052965927 0.000000000000000
0.000779443893754 -0.004236184596159 0.000000000000000
-0.000092746444825 -0.004069362076708 0.000000000000000
0.000365976816856 -0.004019969940067 0.000000000000000
0.000277874267505 -0.003256770006466 0.000000000000000
0.000684681024837 -0.004369302732323 0.000000000000000
0.000080607774886 -0.003836677237963 0.000000000000000
0.000214049287693 -0.004867872357560 0.000000000000000
-0.000046204536286 -0.003375334940720 0.000000000000000
0.000745232802992 -0.004004195471507 0.000000000000000
-0.000427823751017 -0.003804685182764 0.000000000000000
-0.000062437362900 -0.003316581471640 0.000000000000000
-0.000088566476749 -0.002485775325448 0.000000000000000
0.000841347609121 -0.002926538072005 0.000000000000000
-0.000239504797052 -0.002849269506711 0.000000000000000
0.000014623970978 -0.003507945397343 0.000000000000000
-0.000223465257355 -0.002434133723163 0.000000000000000
0.000405062913341 -0.003474148255637 0.000000000000000
-0.000535350209496 -0.002703324760111 0.000000000000000
0.000008283061384 -0.002976889996993 0.000000000000000
-0.000177127874064 -0.002177873307289 0.000000000000000
0.000762466250283 -0.002946269475797 0.000000000000000
0.000598114879025 -0.002489016798844 0.000000000000000
0.000833057789371 -0.003830258743297 0.000000000000000
0.000282969589125 -0.002153176401901 0.000000000000000
0.001072849445148 -0.003153796601666 0.000000000000000
0.000065563064732 -0.003229527066244 0.000000000000000
0.001183930639153 -0.003140241221772 0.000000000000000
0.000296788116570 -0.002469270425700 0.000000000000000
0.001026550035072 -0.003628928014581 0.000000000000000
0.000647891987297 -0.002671415941812 0.000000000000000
0.000935487186899 -0.003978992762247 0.000000000000000
0.000568470488521 -0.002510129922832 0.000000000000000
0.001162188243055 -0.003630332329268 0.000000000000000
0.000242518750590 -0.002910169765016 0.000000000000000
0.000785431484790 -0.002966995984484 0.000000000000000
0.000352369844985 -0.002184090049941 0.000000000000000
0.001343905210762 -0.003408885516882 0.000000000000000
0.000545367883518 -0.002633621548201 0.000000000000000
0.001002444780242 -0.003934834044173 0.000000000000000
0.000602267582641 -0.003199964541980 0.000000000000000
0.000685040973213 -0.002916426108397 0.000000000000000
0.000395295207385 -0.003578611594284 0.000000000000000
0.001149331526302 -0.004178157216215 0.000000000000000
0.000504897736837 -0.003468873019644 0.000000000000000
0.000657137580777 -0.004332278911001 0.000000000000000
0.000299686778556 -0.004250405913400 0.000000000000000
0.000603045604292 -0.005318530708279 0.000000000000000
0.000351821136789 -0.004312209824302 0.000000000000000
0.000174370834228 -0.004955090636216 0.000000000000000
0.000451369215339 -0.004604347443727 0.000000000000000
0.000827667925573 -0.005949200722159 0.000000000000000
0.000382115854817 -0.004431232807876 0.000000000000000
0.000828164955962 -0.006074368939548 0.000000000000000
0.000697793995994 -0.004821886076092 0.000000000000000
0.001120102620707 -0.006539627791415 0.000000000000000
0.000621700565489 -0.005374128180217 0.000000000000000
0.001149819750480 -0.005365678066242 0.000000000000000
0.000533209853042 -0.006125436078171 0.000000000000000
0.001511207391901 -0.005838618010595 0.000000000000000
0.000689059952444 -0.004634166965507 0.000000000000000
0.000759727410714 -0.005046689500506 0.000000000000000
0.000602220706950 -0.005037157813166 0.000000000000000
0.000999286677031 -0.005506250975958 0.000000000000000
0.000444721336751 -0.004828734292022 0.000000000000000
0.000577773277039 -0.004867053526817 0.000000000000000
-0.000233260637111 -0.005402006010512 0.000000000000000
0.000504628861707 -0.005880133660450 0.000000000000000
0.000645225265501 -0.005079595676205 0.000000000000000
0.000871847778564 -0.006424685609964 0.000000000000000
0.000418268829579 -0.006369237093015 0.000000000000000
0.000556343774391 -0.007177305138718 0.000000000000000
0.000258151296230 -0.006039633997020 0.000000000000000
0.000639024549131 -0.006057014498630 0.000000000000000
0.000297349863905 -0.006533923638391 0.000000000000000
0.001080188462358 -0.005907350412854 0.000000000000000
0.000821581165737 -0.005383791088577 0.000000000000000
0.000629973834706 -0.004892142638438 0.000000000000000
0.000462394020223 -0.005692582576260 0.000000000000000
0.000918346616877 -0.006356067485688 0.000000000000000
0.000480578036763 -0.005365487030463 0.000000000000000
0.000831108135768 -0.006083255723705 0.000000000000000
0.000009572795946 -0.005603359112924 0.000000000000000
0.000569116092148 -0.005580578442016 0.000000000000000
0.000524697871372 -0.004887528952798 0.000000000000000
0.000939236955078 -0.005382133970483 0.000000000000000
0.000660340709441 -0.005212853432476 0.000000000000000
0.000853919931047 -0.006119606752821 0.000000000000000
0.000439974879395 -0.004063460784157 0.000000000000000
0.000942875132286 -0.004669853531009 0.000000000000000
0.000144534298941 -0.004542245278801 0.000000000000000
0.001543152544520 -0.003793414925500 0.000000000000000
0.000862157890663 -0.003357660118557 0.000000000000000
0.000983109784971 -0.003259185517931 0.000000000000000
0.000603406974807 -0.002854990878260 0.000000000000000
0.001189424643698 -0.003162629015851 0.000000000000000
0.001001289722300 -0.001984979104041 0.000000000000000
0.002083497194349 -0.002126709165994 0.000000000000000
0.000452819929517 -0.002169538656623 0.000000000000000
0.000937523381796 -0.002445267101977 0.000000000000000
0.000661771315685 -0.001300321693725 0.000000000000000
0.001575167100211 -0.002779755704460 0.000000000000000
0.000896100843172 -0.001841664679337 0.000000000000000
0.001075800865906 -0.001997640143073 0.000000000000000
0.000877324860714 -0.000978250739421 0.000000000000000
0.001859946312213 -0.000909618229780 0.000000000000000
0.000326472049161 -0.001350268722041 0.000000000000000
0.000872905295932 -0.001619636458669 0.000000000000000
0.000800522545125 -0.000966139787093 0.000000000000000
0.001851124792925 -0.001859124351938 0.000000000000000
0.001281021365185 -0.001440580380970 0.000000000000000
0.001326871476557 -0.002239116923624 0.000000000000000
0.001227486509137 -0.001150978417303 0.000000000000000
0.001710266716563 -0.001465168249296 0.000000000000000
0.000865844248311 -0.001205015495453 0.000000000000000
0.001129536746798 -0.002276698920422 0.000000000000000
0.000988940030898 -0.000796611293941 0.000000000000000
0.001461000851188 -0.001818544462036 0.000000000000000
0.000854707247835 -0.001389883292099 0.000000000000000
0.000998614769514 -0.002037149583718 0.000000000000000
0.000626208057907 -0.000672809809955 0.000000000000000
0.001233947075739 -0.001296899507801 0.000000000000000
-0.000198232766090 -0.001101442127901 0.000000000000000
0.000573990867123 -0.001662329760977 0.000000000000000
0.000505450572086 -0.000018857821281 0.000000000000000
0.001068191919693 -0.001405422733598 0.000000000000000
0.000312218804323 -0.000559779473403 0.000000000000000
0.000480065001613 -0.001119547334830 0.000000000000000
0.000274947198001 -0.000245593019556 0.000000000000000
0.001164521331989 -0.000780382351193 0.000000000000000
-0.000138722203704 -0.000532668634006 0.000000000000000
0.000647323875358 -0.001425006238730 0.000000000000000
0.000552596752105 -0.000019878657270 0.000000000000000
0.000659697431094 -0.001459070478249 0.000000000000000
0.000567133868790 -0.000928271985302 0.000000000000000
0.001423039783320 -0.001859638831474 0.000000000000000
0.001239232169668 -0.000805773978336 0.000000000000000
0.002177072982600 -0.001205607258130 0.000000000000000
0.000172839778900 -0.000739716981060 0.000000000000000
0.001720076924097 -0.001744663232030 0.000000000000000
0.000990124113031 0.000150880320987 0.000000000000000
0.002071651560927 -0.000598562624940 0.000000000000000
0.001045942278465 -0.000748339007383 0.000000000000000
-0.000172326795443 -0.001207514452429 0.000000000000000
0.001411224363010 0.000548154641665 0.000000000000000
0.001239630678357 -0.000135971982706 0.000000000000000
0.002166359134566 0.001390422858126 0.000000000000000
-0.001117845454663 0.000122872284169 0.000000000000000
0.000404832285703 -0.002238445355142 0.000000000000000
0.000465104987334 -0.001328261201431 0.000000000000000
0.001987619326656 -0.002063249937524 0.000000000000000
-0.000820503469886 0.000114552214738 0.000000000000000
0.001423045161782 -0.000622148156169 0.000000000000000
0.000263394191487 -0.000910024447440 0.000000000000000
0.001342003176085 -0.001046872620159 0.000000000000000
-0.000343213917768 -0.000591746523486 0.000000000000000
0.001516676159717 -0.002109915976608 0.000000000000000
0.000769941437801 -0.001740271865450 0.000000000000000
0.001559036330655 -0.001138302340613 0.000000000000000
-0.000313493547507 -0.000861812562260 0.000000000000000
0.001537692257896 -0.001716735521797 0.000000000000000
0.000328576492913 -0.001375154594156 0.000000000000000
0.001415822491021 -0.001558437315397 0.000000000000000
-0.000334494911163 -0.000274875504546 0.000000000000000
0.001116502934136 -0.001989319565835 0.000000000000000
0.000452985692324 -0.002053974795048 0.000000000000000
0.001669283963115 -0.001431646250394 0.000000000000000
-0.000442121942285 -0.000859484906007 0.000000000000000
0.001372603384843 -0.001998628720139 0.000000000000000
0.000122274288790 -0.001973617431583 0.000000000000000
0.001304655373395 -0.002087750990008 0.000000000000000
-0.000444180149341 -0.001016451897394 0.000000000000000
0.001133423481380 -0.002494853841435 0.000000000000000
0.000246472668145 -0.002430371875057 0.000000000000000
0.001660224922526 -0.001852091423462 0.000000000000000
-0.000256340078485 -0.000910464695881 0.000000000000000
0.001435528388741 -0.002237931402515 0.000000000000000
0.000336096883006 -0.002221935566606 0.000000000000000
0.001369318021450 -0.002347815646147 0.000000000000000
-0.000431101259656 -0.001052558188788 0.000000000000000
0.001223975033576 -0.002694556978073 0.000000000000000
0.000293751419599 -0.002475590002265 0.000000000000000
0.001664213718569 -0.001947991468683 0.000000000000000
-0.000211645107091 -0.001366544278762 0.000000000000000
0.001470163204449 -0.002414489131725 0.000000000000000
0.000400754766890 -0.002691331705168 0.000000000000000
0.001476122329535 -0.002877757287010 0.000000000000000
-0.000024301876647 -0.001779768952634 0.000000000000000
0.001491584256354 -0.003385806374594 0.000000000000000
0.000507949292722 -0.002841865562245 0.000000000000000
0.001799453999190 -0.002220288987476 0.000000000000000
0.000090463482715 -0.001980994945269 0.000000000000000
0.001557020866252 -0.003192237695556 0.000000000000000
0.000861911863875 -0.003031738770114 0.000000000000000
0.001742839767807 -0.003352687044689 0.000000000000000
0.000053055539005 -0.002089545412609 0.000000000000000
0.001584611924518 -0.003587662490976 0.000000000000000
0.000747325221771 -0.003342343785451 0.000000000000000
0.001810727138926 -0.002670009159362 0.000000000000000
-0.000040034723049 -0.002325632271723 0.000000000000000
0.001593346773846 -0.003506257209300 0.000000000000000
0.000365968511339 -0.003210676682521 0.000000000000000
0.001541062678720 -0.003436067500628 0.000000000000000
-0.000112130378140 -0.002296338913913 0.000000000000000
0.001460344359963 -0.003795652405643 0.000000000000000
0.000715582586616 -0.003728898352438 0.000000000000000
0.001770933000343 -0.003110770118136 0.000000000000000
0.000013891855107 -0.002607558543756 0.000000000000000
0.001525399651333 -0.003639932797057 0.000000000000000
0.000460729120632 -0.003676722787978 0.000000000000000
0.001572326323212 -0.003941290017617 0.000000000000000
-0.000138134187687 -0.002675309799712 0.000000000000000
0.001458501951169 -0.004202760778468 0.000000000000000
0.000778174657217 -0.004113957556653 0.000000000000000
0.001893337659928 -0.003534809086379 0.000000000000000
-0.000231155350414 -0.003025317896064 0.000000000000000
0.001246571593459 -0.003699612451659 0.000000000000000
0.000327768847990 -0.003662693367817 0.000000000000000
0.001254461818087 -0.003972466157295 0.000000000000000
0.000097778557361 -0.002480245644195 0.000000000000000
0.001359521277839 -0.003899088718830 0.000000000000000
0.000521477554264 -0.003236313837244 0.000000000000000
0.001664784009218 -0.002674653376019 0.000000000000000
-0.000043006114152 -0.002297027052714 0.000000000000000
0.001395742835009 -0.003304349665844 0.000000000000000
0.000516129003178 -0.002564456554184 0.000000000000000
0.001505033253326 -0.002871095143476 0.000000000000000
-0.000358862373507 -0.001606180018374 0.000000000000000
0.001308568592631 -0.002993772648494 0.000000000000000
0.000383132981157 -0.002667358649458 0.000000000000000
0.001442456608601 -0.002016224309794 0.000000000000000
-0.000616308018367 -0.001936590705560 0.000000000000000
0.001002196321604 -0.003145865386241 0.000000000000000
-0.000144242692102 -0.002925294795138 0.000000000000000
0.000974375691898 -0.002974337743609 0.000000000000000
-0.000636125977450 -0.002043058009832 0.000000000000000
0.000983376991301 -0.003829740723748 0.000000000000000
0.000189887640624 -0.003520617993888 0.000000000000000
0.001398794633894 -0.002794093253431 0.000000000000000
-0.000477809251866 -0.002213674832678 0.000000000000000
0.001172995104115 -0.003335562930282 0.000000000000000
0.000312453045171 -0.003011667565282 0.000000000000000
0.001546619556481 -0.003048587233609 0.000000000000000
-0.000163137049646 -0.001955930812155 0.000000000000000
0.001451388254307 -0.003777119615802 0.000000000000000
0.000639313863575 -0.003509040431811 0.000000000000000
0.001969180794934 -0.002855909541468 0.000000000000000
-0.000033200114370 -0.002673013580098 0.000000000000000
0.001402939424088 -0.003858217922995 0.000000000000000
0.000382047899024 -0.003695228500364 0.000000000000000
0.001405929967718 -0.003824404804108 0.000000000000000
-0.000021434932891 -0.002836627027856 0.000000000000000
0.001376662588649 -0.004661707503386 0.000000000000000
0.000185303575330 -0.004254652483054 0.000000000000000
0.001406400265132 -0.003513616709489 0.000000000000000
-0.000154468219384 -0.003427487997016 0.000000000000000
0.001298670782823 -0.004541959202251 0.000000000000000
0.000366282700466 -0.004458871794158 0.000000000000000
0.001175935431288 -0.004425087136441 0.000000000000000
-0.000269222872236 -0.003077772382925 0.000000000000000
0.001220567022867 -0.004609351082661 0.000000000000000
0.000313619022675 -0.004526824726679 0.000000000000000
0.001324333136584 -0.003664196387563 0.000000000000000
-0.000434935962781 -0.003296005461638 0.000000000000000
0.000938237706200 -0.004210880879586 0.000000000000000
0.000024131374054 -0.004030953335265 0.000000000000000
0.000840199160778 -0.004099187877637 0.000000000000000
-0.000637178328431 -0.002764282253247 0.000000000000000
0.000858688676612 -0.004325866568402 0.000000000000000
0.000268646392138 -0.004038304198170 0.000000000000000
0.001268545041891 -0.003318283814574 0.000000000000000
-0.000625269847457 -0.002804822630273 0.000000000000000
0.000773451321023 -0.003597598857763 0.000000000000000
-0.000348876193275 -0.003488493843829 0.000000000000000
0.000688865551861 -0.003455413248929 0.000000000000000
-0.000688205679770 -0.002374798487598 0.000000000000000
0.000885247735757 -0.003899786434328 0.000000000000000
0.000177302041190 -0.003438217347945 0.000000000000000
0.001484916476755 -0.002732475816355 0.000000000000000
-0.000443500113916 -0.002564762353375 0.000000000000000
0.001064977836994 -0.003768785245646 0.000000000000000
0.000108018745867 -0.003895435802568 0.000000000000000
0.001220270675959 -0.004195015149620 0.000000000000000
-0.000094901286317 -0.002705119621370 0.000000000000000
0.001213013678537 -0.004248779338215 0.000000000000000
0.000581894776098 -0.003735388064641 0.000000000000000
0.001991357373643 -0.003242735116791 0.000000000000000
-0.000104248804402 -0.003016852139544 0.000000000000000
0.001496835985566 -0.003836346078093 0.000000000000000
0.000682945950835 -0.003614081021135 0.000000000000000
0.001623769409842 -0.003900195684812 0.000000000000000
-0.000173145593133 -0.002619799331779 0.000000000000000
0.001222640295534 -0.004172429726946 0.000000000000000
0.000307720799378 -0.003724511799343 0.000000000000000
0.001422072904892 -0.003061540361631 0.000000000000000
-0.000443661456045 -0.003228288165102 0.000000000000000
0.001087257687642 -0.004217448766723 0.000000000000000
0.000310391661088 -0.003727582501589 0.000000000000000
0.001637266856697 -0.003864168942809 0.000000000000000
-0.000181251088963 -0.003437757058970 0.000000000000000
0.001065733773868 -0.005048114621838 0.000000000000000
0.000541475841318 -0.005000840115606 0.000000000000000
0.001442558679213 -0.004526568444438 0.000000000000000
-0.000558346190451 -0.004579482706134 0.000000000000000
0.000926301808079 -0.005227659632878 0.000000000000000
0.000402846549043 -0.005118697991815 0.000000000000000
0.001664046761992 -0.005371192807512 0.000000000000000
-0.000145013811586 -0.004643733019190 0.000000000000000
0.001074139089523 -0.005874805223476 0.000000000000000
0.000606950746215 -0.005543077833693 0.000000000000000
0.001791932993866 -0.004917851187031 0.000000000000000
0.000032700990964 -0.005231942797016 0.000000000000000
0.001388671952566 -0.006202655075140 0.000000000000000
0.000781993414872 -0.006141673255972 0.000000000000000
0.001830448118661 -0.006238184166940 0.000000000000000
0.000220286100532 -0.004892485425642 0.000000000000000
0.001324968784477 -0.005991874472072 0.000000000000000
0.000603122843889 -0.005655538197353 0.000000000000000
0.001701098245493 -0.005123660201410 0.000000000000000
-0.000239343072363 -0.005077101523259 0.000000000000000
0.001061565983612 -0.006000612768490 0.000000000000000
0.000224442985476 -0.006158735209504 0.000000000000000
0.000893471928590 -0.006026068073088 0.000000000000000
-0.000427227806201 -0.005002223040890 0.000000000000000
0.001065000552783 -0.007045392032695 0.000000000000000
0.000466166839507 -0.007184009328314 0.000000000000000
0.001355629172016 -0.006397296637492 0.000000000000000
-0.000607309173952 -0.005938169509368 0.000000000000000
0.001163576821587 -0.006967246438352 0.000000000000000
0.000473899836035 -0.006799997406804 0.000000000000000
0.001351757044287 -0.006821418757343 0.000000000000000
-0.000159579011465 -0.005577300290051 0.000000000000000
0.001329754194562 -0.007004466435879 0.000000000000000
0.000411088293736 -0.006403604119092 0.000000000000000
0.001655691482174 -0.005616551907998 0.000000000000000
-0.000333381802530 -0.004819247751071 0.000000000000000
0.001100960201829 -0.006332807122304 0.000000000000000
0.000442185059477 -0.006361152268394 0.000000000000000
0.001458702895351 -0.006714490196534 0.000000000000000
-0.000284094033085 -0.005251041268327 0.000000000000000
0.001417894632986 -0.006495773745171 0.000000000000000
0.000599440798556 -0.006099048642969 0.000000000000000
0.001914286757614 -0.005436648934129 0.000000000000000
-0.000331119041457 -0.004805626354155 0.000000000000000
0.001498222012506 -0.005651854916451 0.000000000000000
0.000733338675173 -0.005245873875686 0.000000000000000
0.001753745215493 -0.005399526241711 0.000000000000000
0.000295878002899 -0.003922644216111 0.000000000000000
0.001993259989778 -0.005029914144496 0.000000000000000
0.000882098721728 -0.004342404197665 0.000000000000000
0.002291703335968 -0.003439688070722 0.000000000000000
0.000249166133043 -0.002760324768045 0.000000000000000
0.002198045568353 -0.003915833209374 0.000000000000000
0.001158281861573 -0.003522826826667 0.000000000000000
0.002314112494808 -0.003447134631582 0.000000000000000
0.000384546236646 -0.001876870861552 0.000000000000000
0.002153192998421 -0.003669685444139 0.000000000000000
0.001027986646649 -0.003401341133533 0.000000000000000
0.002459268251769 -0.002698411846065 0.000000000000000
0.000312581824474 -0.001588554733895 0.000000000000000
0.002363203013648 -0.002617098070297 0.000000000000000
0.000925598893725 -0.002356950105442 0.000000000000000
0.001977563125190 -0.002430570964916 0.000000000000000
-0.000067710136434 -0.001738278954665 0.000000000000000
0.001766677556489 -0.003436027037581 0.000000000000000
0.001103621595088 -0.003253335025270 0.000000000000000
0.002235121457628 -0.002693554778905 0.000000000000000
0.000057141265041 -0.001591505443437 0.000000000000000
0.002000121920544 -0.002564790280674 0.000000000000000
0.001113573918052 -0.002269154307836 0.000000000000000
0.002289634095437 -0.002377444771522 0.000000000000000
0.000265932279365 -0.001335653887392 0.000000000000000
0.001826702996008 -0.002928907017420 0.000000000000000
0.000940318316066 -0.002864131274680 0.000000000000000
0.002069622680755 -0.002015516331044 0.000000000000000
0.000047289851571 -0.001434000294176 0.000000000000000
0.001809152838412 -0.002536077219048 0.000000000000000
0.000571485210881 -0.002315017693763 0.000000000000000
0.001618035416194 -0.002213885936178 0.000000000000000
-0.000081634801737 -0.001027142557539 0.000000000000000
0.001359560293202 -0.002484338980166 0.000000000000000
0.000546293299923 -0.002104132313804 0.000000000000000
0.001712883789370 -0.001243232626991 0.000000000000000
-0.000278500122748 -0.000812396599623 0.000000000000000
0.001436193350718 -0.001776056716906 0.000000000000000
0.000272151952046 -0.001478972248960 0.000000000000000
0.001216583742252 -0.001604195969093 0.000000000000000
-0.000383683560701 0.000030703938936 0.000000000000000
0.001144378365664 -0.001872427665259 0.000000000000000
0.000579974584175 -0.001192297701328 0.000000000000000
0.002210768343078 -0.000606468235903 0.000000000000000
0.000694476471411 0.000276237437673 0.000000000000000
0.002232595316830 -0.001345958719748 0.000000000000000
0.001639258687341 -0.001069024752478 0.000000000000000
0.002359951258783 -0.001719478909355 0.000000000000000
0.000134693986833 -0.000026171432850 0.000000000000000
0.001274240731358 -0.001798785628793 0.000000000000000
0.001253236656284 -0.001485709961534 0.000000000000000
0.002437486101404 -0.001770719087667 0.000000000000000
-0.001113036859319 -0.000335033184833 0.000000000000000
0.001888266123727 -0.001094006621191 0.000000000000000
0.000017005321347 -0.000966121218407 0.000000000000000
-0.000236229707769 0.000139617029319 0.000000000000000
-0.000674292737485 -0.002606991186433 0.000000000000000
-0.000655035155951 -0.000482457129801 0.000000000000000
0.001418427896560 -0.002929277157927 0.000000000000000
0.000134436458630 -0.000834315917897 0.000000000000000
0.001300800102240 -0.001058611835535 0.000000000000000
0.000069768156125 0.000135064186192 0.000000000000000
0.000847505393638 -0.003201464129948 0.000000000000000
0.000052946562043 -0.000498932708675 0.000000000000000
0.000396138698668 -0.001806486847596 0.000000000000000
-0.000053415236902 -0.000069409062083 0.000000000000000
0.001427910654397 -0.003163480405344 0.000000000000000
0.000465007305115 -0.000600546550467 0.000000000000000
0.000804124206274 -0.001832704943135 0.000000000000000
0.000368413607400 -0.000410809348845 0.000000000000000
0.001588110637149 -0.003459789370511 0.000000000000000
0.000556292768797 -0.000236113136027 0.000000000000000
0.000834534013870 -0.001759875635948 0.000000000000000
0.000010989132405 -0.000046438228352 0.000000000000000
0.001570974933983 -0.003150731947287 0.000000000000000
0.000555833015571 -0.000697819194661 0.000000000000000
0.000641790945639 -0.001936897093754 0.000000000000000
0.000032855747447 -0.000409361434178 0.000000000000000
0.001381725322205 -0.004022919523177 0.000000000000000
0.000481234181422 -0.000715221228656 0.000000000000000
0.000738047085435 -0.002181337752903 0.000000000000000
0.000061441523532 -0.000567721284931 0.000000000000000
0.001496534805987 -0.003716330910215 0.000000000000000