# vtk DataFile Version 2.0
B_vector
ASCII
DATASET STRUCTURED_POINTS
DIMENSIONS 257 257 1
ORIGIN 0.000000 0.000000 0.000000
SPACING 8.000000 8.000000 1
CELL_DATA 65536
VECTORS B float
0.000158568535236 0.000159230372435 0.000000000000000
0.000085210072358 0.000354327288187 0.000000000000000
0.000173192154239 0.000503382012578 0.000000000000000
0.000195193599266 0.000835973009008 0.000000000000000
0.000116788659974 0.000955746021096 0.000000000000000
0.000212673785850 0.001159002630824 0.000000000000000
0.000196380158225 0.001480440607980 0.000000000000000
0.000100634912872 0.001678274531361 0.000000000000000
0.000186021831103 0.001816491700523 0.000000000000000
0.000086366517180 0.001995772872331 0.000000000000000
0.000093149122278 0.002298206642848 0.000000000000000
0.000183027757640 0.002457111640317 0.000000000000000
0.000093981762839 0.002618106227916 0.000000000000000
0.000183055583475 0.002772388271061 0.000000000000000
0.000179183063190 0.003086095588996 0.000000000000000
0.000088951495214 0.003242380618623 0.000000000000000
0.000177309473045 0.003395874513022 0.000000000000000
0.000173463124109 0.003699417420012 0.000000000000000
0.000087901101838 0.003847618284593 0.000000000000000
0.000178042188835 0.003998473954146 0.000000000000000
0.000169701191959 0.004276818619702 0.000000000000000
0.000090818177932 0.004498052210810 0.000000000000000
0.000149594935981 0.004575767760038 0.000000000000000
0.000166636972599 0.004848626707278 0.000000000000000
0.000085595732113 0.005007238202375 0.000000000000000
0.000154301945543 0.005109193772835 0.000000000000000
0.000145370363968 0.005380679529743 0.000000000000000
0.000062717930798 0.005524244695324 0.000000000000000
0.000134839079771 0.005620621347444 0.000000000000000
0.000135838375835 0.005870394882199 0.000000000000000
0.000066128752430 0.005997666543938 0.000000000000000
0.000129303569112 0.006090289989561 0.000000000000000
0.000060596339146 0.006255824561884 0.000000000000000
0.000043587432522 0.006398298489652 0.000000000000000
0.000113220981117 0.006518907333720 0.000000000000000
0.000042129002158 0.006642042253301 0.000000000000000
0.000046006433451 0.006767706814951 0.000000000000000
0.000098299105290 0.006892737506216 0.000000000000000
0.000045723422403 0.006968512492783 0.000000000000000
0.000089473892737 0.007048281068118 0.000000000000000
0.000077359957590 0.007205503593550 0.000000000000000
0.000035935746759 0.007255737037634 0.000000000000000
0.000076217992518 0.007325953665998 0.000000000000000
0.000057646748655 0.007438434936352 0.000000000000000
0.000026894782476 0.007501297845742 0.000000000000000
0.000047194428116 0.007536457863359 0.000000000000000
0.000035683944774 0.007608327354472 0.000000000000000
0.000014232631956 0.007645209056943 0.000000000000000
0.000022828239569 0.007659441502049 0.000000000000000
0.000010821667867 0.007689345858726 0.000000000000000
0.000001255191361 0.007704480695087 0.000000000000000
-0.000004149181490 0.007694659266763 0.000000000000000
-0.000020000955979 0.007675743156521 0.000000000000000
-0.000013235645563 0.007661710178475 0.000000000000000
-0.000034014350464 0.007630313808474 0.000000000000000
-0.000050441880129 0.007555864254522 0.000000000000000
-0.000029297999481 0.007518680362651 0.000000000000000
-0.000067221699024 0.007454450699113 0.000000000000000
-0.000036652295663 0.007399840683160 0.000000000000000
-0.000046122881432 0.007255823827954 0.000000000000000
-0.000103437271517 0.007156552392299 0.000000000000000
-0.000057830710794 0.007077559511995 0.000000000000000
-0.000125651140344 0.006951683770481 0.000000000000000
-0.000155447617529 0.006721763860031 0.000000000000000
-0.000082495086490 0.006576103204364 0.000000000000000
-0.000167445949883 0.006451452346920 0.000000000000000
-0.000188451385147 0.006132488013641 0.000000000000000
-0.000098130713012 0.005972036096805 0.000000000000000
-0.000210779764094 0.005781758046026 0.000000000000000
-0.000231339286055 0.005389476426683 0.000000000000000
-0.000112370093674 0.005198335216765 0.000000000000000
-0.000269946504097 0.004934035581608 0.000000000000000
-0.000317917257268 0.004461302951496 0.000000000000000
-0.000169362011336 0.004131639189866 0.000000000000000
-0.000310189763901 0.003918868049644 0.000000000000000
-0.000376885394999 0.003326424326536 0.000000000000000
-0.000192999217858 0.003003005809448 0.000000000000000
-0.000385001912990 0.002703337277574 0.000000000000000
-0.000395254001954 0.001989382491698 0.000000000000000
-0.000196912769932 0.001685604405212 0.000000000000000
-0.000451201088080 0.001220900929953 0.000000000000000
-0.000260419066700 0.000927384921212 0.000000000000000
-0.000524502207326 0.000409129705638 0.000000000000000
-0.000520609093506 -0.000444124020277 0.000000000000000
-0.000266955716820 -0.000929828333324 0.000000000000000
-0.000557294141905 -0.001421521870525 0.000000000000000
-0.000586237683318 -0.002431569794659 0.000000000000000
-0.000291886330943 -0.002912864847799 0.000000000000000
-0.000635931647703 -0.003506693159557 0.000000000000000
-0.000700892435822 -0.004683233368334 0.000000000000000
-0.000344618034915 -0.005267754652023 0.000000000000000
-0.000716452476582 -0.005904326384888 0.000000000000000
-0.000782452347145 -0.007193996226312 0.000000000000000
-0.000399339932342 -0.007880513463507 0.000000000000000
-0.000821097757526 -0.008603073364299 0.000000000000000
-0.000881670390193 -0.010081469250224 0.000000000000000
-0.000444777121430 -0.010838220514083 0.000000000000000
-0.000907376483864 -0.011637832776276 0.000000000000000
-0.000939239196193 -0.013282431097598 0.000000000000000
-0.000474283771746 -0.014007003115722 0.000000000000000
-0.001026052765650 -0.015078031873439 0.000000000000000
-0.001192060750279 -0.016858706069390 0.000000000000000
-0.000656162824746 -0.017912641664991 0.000000000000000
-0.001128379691304 -0.018792709952782 0.000000000000000
-0.001335402841259 -0.020827556172642 0.000000000000000
-0.000727264608042 -0.021902263057296 0.000000000000000
-0.001308256664266 -0.022858049205602 0.000000000000000
-0.000633158953090 -0.024085736680625 0.000000000000000
-0.001285162563227 -0.025152463051292 0.000000000000000
-0.001382445355862 -0.027494431763968 0.000000000000000
-0.000742895524819 -0.028597782561917 0.000000000000000
-0.001511869495729 -0.029856698926896 0.000000000000000
-0.001455860799379 -0.032355824216127 0.000000000000000
-0.000758867564657 -0.033841064044531 0.000000000000000
-0.001500676932950 -0.035057665473396 0.000000000000000
-0.001575480212186 -0.037756577294135 0.000000000000000
-0.000799210767153 -0.039102852272079 0.000000000000000
-0.001646130546345 -0.040537546206070 0.000000000000000
-0.001719989486047 -0.043468194702965 0.000000000000000
-0.000869412320087 -0.044941810152458 0.000000000000000
-0.001757317565025 -0.046479643018682 0.000000000000000
-0.001826085197672 -0.049583052072962 0.000000000000000
-0.000901957086125 -0.051183569477280 0.000000000000000
-0.001828585115772 -0.052712150979527 0.000000000000000
-0.001861213374376 -0.055988141439317 0.000000000000000
-0.000840910629529 -0.057665461362701 0.000000000000000
-0.001878412445192 -0.059315573212107 0.000000000000000
-0.000822362904691 -0.061031286312572 0.000000000000000
-0.000851188059446 -0.064377638552467 0.000000000000000
-0.001957925413742 -0.066184684716059 0.000000000000000
-0.000934266286605 -0.067841448986223 0.000000000000000
-0.002001242483816 -0.069669808775259 0.000000000000000
-0.002049958748704 -0.073187273982843 0.000000000000000
-0.001025110732448 -0.074962362818157 0.000000000000000
-0.002050484181015 -0.076738361726769 0.000000000000000
-0.002055758847246 -0.080292911451312 0.000000000000000
-0.001026513640196 -0.082078744793827 0.000000000000000
-0.002045066563888 -0.083840998169122 0.000000000000000
-0.002024194612115 -0.087366052243470 0.000000000000000
-0.001004764875307 -0.089131756342470 0.000000000000000
-0.001996556752484 -0.090846409845778 0.000000000000000
-0.001956239613243 -0.094269837876638 0.000000000000000
-0.000965617132168 -0.095988548976474 0.000000000000000
-0.001904561480543 -0.097613779596286 0.000000000000000
-0.001842288084247 -0.100858245496004 0.000000000000000
-0.000903128843491 -0.102486895591123 0.000000000000000
-0.001768900963304 -0.103986456890968 0.000000000000000
-0.001683247148400 -0.106975477338481 0.000000000000000
-0.000817023813075 -0.108477146899357 0.000000000000000
-0.001585798694937 -0.109807193828307 0.000000000000000
-0.000765766134539 -0.111228338719274 0.000000000000000
-0.000709365543544 -0.113792618351038 0.000000000000000
-0.001360223499766 -0.114919947075330 0.000000000000000
-0.000648129170725 -0.116152516116682 0.000000000000000
-0.001233450909546 -0.117166453003205 0.000000000000000
-0.001099028152032 -0.119186579307758 0.000000000000000
-0.000513447003315 -0.120200353817454 0.000000000000000
-0.000955243357662 -0.120966014529135 0.000000000000000
-0.000802782292688 -0.122488517319556 0.000000000000000
-0.000364395635513 -0.123247177882890 0.000000000000000
-0.000655217512374 -0.123751116932270 0.000000000000000
-0.000490485676687 -0.124745312929484 0.000000000000000
-0.000203959301017 -0.125235538955532 0.000000000000000
-0.000335845050224 -0.125464404891068 0.000000000000000
-0.000181160453225 -0.125911767091593 0.000000000000000
-0.000045872138464 -0.126146296587399 0.000000000000000
-0.000002245952689 -0.126074251529484 0.000000000000000
0.000134321677812 -0.125961318756830 0.000000000000000
0.000107450313426 -0.125914776187972 0.000000000000000
0.000295443857435 -0.125589054566279 0.000000000000000
0.000435177380697 -0.124948175223403 0.000000000000000
0.000253936590875 -0.124645549524737 0.000000000000000
0.000574441256483 -0.124022807121948 0.000000000000000
0.000762043571641 -0.122886112978469 0.000000000000000
0.000422820655300 -0.122311150082580 0.000000000000000
0.000864266874723 -0.121553481782710 0.000000000000000
0.000442656720380 -0.120831422552397 0.000000000000000
0.000962596084237 -0.119950927712699 0.000000000000000
0.001067760686714 -0.118184320169071 0.000000000000000
0.000601731402491 -0.117377133769852 0.000000000000000
0.001203239693202 -0.116150154568336 0.000000000000000
0.001392405110041 -0.114047864518275 0.000000000000000
0.000748186582624 -0.112804100370851 0.000000000000000
0.001383625401431 -0.111803629798088 0.000000000000000
0.001427876967075 -0.109308553549934 0.000000000000000
0.000710070134803 -0.108065082945068 0.000000000000000
0.001497050105731 -0.106751811683775 0.000000000000000
0.001534683092407 -0.104098990609180 0.000000000000000
0.000794884173284 -0.102825863597204 0.000000000000000
0.001622418024457 -0.101388138517101 0.000000000000000
0.001757306618530 -0.098491125256240 0.000000000000000
0.000991659252673 -0.097117433455139 0.000000000000000
0.001827790793241 -0.095706748540152 0.000000000000000
0.001033747496408 -0.093524466679356 0.000000000000000
0.000780965830150 -0.091544135048521 0.000000000000000
0.001675893252344 -0.089824493164405 0.000000000000000
0.001616121240689 -0.086750056471253 0.000000000000000
0.001533608313247 -0.086653031835785 0.000000000000000
0.001359447130070 -0.083976973272230 0.000000000000000
0.000761411802841 -0.082076717934985 0.000000000000000
0.001586236902313 -0.080829277209397 0.000000000000000
0.001694841316786 -0.077895576075659 0.000000000000000
0.000845002719031 -0.076413296768841 0.000000000000000
0.001693176477026 -0.074943934474530 0.000000000000000
0.001666683545218 -0.072027004063261 0.000000000000000
0.000821381044150 -0.070578046410241 0.000000000000000
0.001655366067105 -0.069138880365849 0.000000000000000
0.001639411213898 -0.066282480849447 0.000000000000000
0.000812741452639 -0.064851440118158 0.000000000000000
0.001611941920759 -0.063465786375699 0.000000000000000
0.001585017471559 -0.060697456712952 0.000000000000000
0.000783480239273 -0.059309951977533 0.000000000000000
0.001552333102786 -0.057978389627441 0.000000000000000
0.001522182839249 -0.055315722429632 0.000000000000000
0.000755159960688 -0.053987199832541 0.000000000000000
0.001491027364269 -0.052705008622691 0.000000000000000
0.001458599777871 -0.050151667414359 0.000000000000000
0.000749954627410 -0.048929767450593 0.000000000000000
0.001423550584243 -0.047651356118005 0.000000000000000
0.001369867358419 -0.045103134824218 0.000000000000000
0.000707048821578 -0.044220899797946 0.000000000000000
0.001471628944594 -0.042842907760740 0.000000000000000
0.000744486584456 -0.041365002390451 0.000000000000000
0.001327909588312 -0.040499830666483 0.000000000000000
0.001288399201258 -0.038140223077905 0.000000000000000
0.000643921829266 -0.037008737142674 0.000000000000000
0.001264346728825 -0.035950469984988 0.000000000000000
0.001237267078910 -0.033776206942484 0.000000000000000
0.000593488521385 -0.032661149772176 0.000000000000000
0.001196446990086 -0.031651879421463 0.000000000000000
0.001209111768649 -0.029532755914074 0.000000000000000
0.000648960437315 -0.028595440241353 0.000000000000000
0.001255067503895 -0.027528312644037 0.000000000000000
0.001139844927509 -0.025575577249636 0.000000000000000
0.000593648618378 -0.024310189976633 0.000000000000000
0.001081539446655 -0.023585344694848 0.000000000000000
0.001051400657923 -0.021668586015765 0.000000000000000
0.000517062782670 -0.020709962952105 0.000000000000000
0.001049147093281 -0.019805522523919 0.000000000000000
0.001057259325440 -0.017972711805890 0.000000000000000
0.000522590158912 -0.017046673119645 0.000000000000000
0.001040973958092 -0.016170721476290 0.000000000000000
0.001020198123126 -0.014374226466124 0.000000000000000
0.000496405869410 -0.013467047721559 0.000000000000000
0.000984909608920 -0.012633133733492 0.000000000000000
0.000469093362916 -0.011749860062453 0.000000000000000
0.000977343121879 -0.010908978023479 0.000000000000000
0.000959357370258 -0.009192062803739 0.000000000000000
0.000435839010270 -0.008330780284587 0.000000000000000
0.000940003183546 -0.007502572700493 0.000000000000000
0.000951230965744 -0.005831984729320 0.000000000000000
0.000489894552767 -0.005056237861257 0.000000000000000
0.000953507451523 -0.004116781088701 0.000000000000000
0.000968505737620 -0.002519553956683 0.000000000000000
0.000494649509320 -0.001685350310282 0.000000000000000
0.000791409049512 -0.000779596269892 0.000000000000000
0.000353235301034 0.000087977390879 0.000000000000000
0.000398936046147 0.000395588066159 0.000000000000000
0.000478041055315 0.000652334788104 0.000000000000000
0.000478041055315 0.000652334788104 0.000000000000000
0.000480874945236 0.000999284609581 0.000000000000000
0.000115510703157 0.001351560927142 0.000000000000000
0.000485509828363 0.001308958740233 0.000000000000000
0.000476089859546 0.001659664938516 0.000000000000000
0.000383612236977 0.001895169728354 0.000000000000000
0.000452376276698 0.001987570351485 0.000000000000000
0.000466934210940 0.002324227672293 0.000000000000000
0.000379153404848 0.002490421599261 0.000000000000000
0.000459076339492 0.002607875712267 0.000000000000000
0.000442926887199 0.002932595419682 0.000000000000000
0.000342361975430 0.003089885408401 0.000000000000000
0.000435878134902 0.003240763236734 0.000000000000000
0.000441018550105 0.003551556960778 0.000000000000000
0.000441018550105 0.003551556960778 0.000000000000000
0.000444316213330 0.003852855865019 0.000000000000000
0.000430211572861 0.004184281468821 0.000000000000000
0.000430211572861 0.004184281468821 0.000000000000000
0.000274220847173 0.004433625208979 0.000000000000000
0.000327765240590 0.004749025060239 0.000000000000000
0.000327765240590 0.004749025060239 0.000000000000000
0.000381141637800 0.004988396150994 0.000000000000000
0.000303420035924 0.005170533067857 0.000000000000000
0.000362131077375 0.005258854093453 0.000000000000000
0.000342850711191 0.005516730074790 0.000000000000000
0.000268332817241 0.005629194484124 0.000000000000000
0.000335446722830 0.005773451037736 0.000000000000000
0.000327089806483 0.006011215849934 0.000000000000000
0.000327089806483 0.006011215849934 0.000000000000000
0.000207642827599 0.006206800792175 0.000000000000000
0.000227403717128 0.006443769749470 0.000000000000000
0.000277329452325 0.006648269557244 0.000000000000000
0.000199145489172 0.006602007827797 0.000000000000000
0.000182120304872 0.006812477200176 0.000000000000000
0.000228518870781 0.006957979802665 0.000000000000000
0.000228518870781 0.006957979802665 0.000000000000000
0.000199282553444 0.007114308512722 0.000000000000000
0.000149163614607 0.007223921287628 0.000000000000000
0.000185743069617 0.007276162769306 0.000000000000000
0.000144866594103 0.007396393394237 0.000000000000000
0.000144866594103 0.007396393394237 0.000000000000000
0.000123230086469 0.007505715097045 0.000000000000000
0.000104565287657 0.007581922737588 0.000000000000000
0.000104565287657 0.007581922737588 0.000000000000000
0.000074102278977 0.007643306536367 0.000000000000000
0.000040876084313 0.007684053843570 0.000000000000000
0.000040876084313 0.007684053843570 0.000000000000000
0.000011516306550 0.007704661543514 0.000000000000000
-0.000021170726802 0.007697398527830 0.000000000000000
-0.000021170726802 0.007697398527830 0.000000000000000
-0.000069849571301 0.007668600423786 0.000000000000000
-0.000067227237436 0.007662459485866 0.000000000000000
-0.000100587026314 0.007603402010152 0.000000000000000
-0.000148335617150 0.007517653155689 0.000000000000000
-0.000137084873717 0.007499767837521 0.000000000000000
-0.000193245513852 0.007405804594299 0.000000000000000
-0.000223223459070 0.007249616729784 0.000000000000000
-0.000204637628498 0.007227184175335 0.000000000000000
-0.000274211555803 0.007081430349386 0.000000000000000
-0.000320949005858 0.006847823756176 0.000000000000000
-0.000320949005858 0.006847823756176 0.000000000000000
-0.000378688663356 0.006606566625910 0.000000000000000
-0.000422420990457 0.006290259835447 0.000000000000000
-0.000422420990457 0.006290259835447 0.000000000000000
-0.000501006361233 0.005974089306550 0.000000000000000
-0.000561136161848 0.005618615224787 0.000000000000000
-0.000561136161848 0.005618615224787 0.000000000000000
-0.000580279649772 0.005195163903424 0.000000000000000
-0.000657123761426 0.004663434365655 0.000000000000000
-0.000657123761426 0.004663434365655 0.000000000000000
-0.000694804757479 0.004279925264633 0.000000000000000
-0.000678100155256 0.003616780433133 0.000000000000000
-0.000678100155256 0.003616780433133 0.000000000000000
-0.000891521909326 0.003143582842724 0.000000000000000
-0.000719286404178 0.002578579901592 0.000000000000000
-0.000892727688426 0.002357373612298 0.000000000000000
-0.001008116535063 0.001647400228621 0.000000000000000
-0.000838456002089 0.001391482178796 0.000000000000000
-0.001100219136861 0.000825623599931 0.000000000000000
-0.001247853174291 0.000042559383840 0.000000000000000
-0.001247853174291 0.000042559383840 0.000000000000000
-0.001315293823358 -0.000942607001755 0.000000000000000
-0.001372968957116 -0.001880530842597 0.000000000000000
-0.001165594436987 -0.002148601239514 0.000000000000000
-0.001550910453543 -0.002957871913666 0.000000000000000
-0.001647190997668 -0.004021498951275 0.000000000000000
-0.001647190997668 -0.004021498951275 0.000000000000000
-0.001751036095345 -0.005273206057304 0.000000000000000
-0.001883385666254 -0.006503364844140 0.000000000000000
-0.001883385666254 -0.006503364844140 0.000000000000000
-0.001975246301807 -0.007899587744654 0.000000000000000
-0.002111633711784 -0.009295737812400 0.000000000000000
-0.002111633711784 -0.009295737812400 0.000000000000000
-0.002220659632845 -0.010823155136940 0.000000000000000
-0.002325493702774 -0.012349903471151 0.000000000000000
-0.002325493702774 -0.012349903471151 0.000000000000000
-0.002308506304536 -0.014044093856035 0.000000000000000
-0.002506248753888 -0.016015226665841 0.000000000000000
-0.000645029258989 -0.015635970442036 0.000000000000000
-0.002763883788035 -0.017429311787387 0.000000000000000
-0.002354073250865 -0.019718982427038 0.000000000000000
-0.000773311909411 -0.019315956430564 0.000000000000000
-0.000727264608042 -0.021902263057296 0.000000000000000
-0.003119342246149 -0.021472625980018 0.000000000000000
-0.003001810121647 -0.023998032264591 0.000000000000000
-0.003224325195884 -0.026283715580321 0.000000000000000
-0.003224325195884 -0.026283715580321 0.000000000000000
-0.003406872881104 -0.028910375630055 0.000000000000000
-0.003437168275866 -0.031166349559797 0.000000000000000
-0.003437168275866 -0.031166349559797 0.000000000000000
-0.003549982253113 -0.033869231826593 0.000000000000000
-0.003908587731958 -0.036400985240764 0.000000000000000
-0.003908587731958 -0.036400985240764 0.000000000000000
-0.004169090515386 -0.039085371483787 0.000000000000000
-0.004195432105127 -0.041962940402610 0.000000000000000
-0.004195432105127 -0.041962940402610 0.000000000000000
-0.004331415187497 -0.044941404824625 0.000000000000000
-0.004447166811706 -0.047971751687231 0.000000000000000
-0.004447166811706 -0.047971751687231 0.000000000000000
-0.004669878594259 -0.051177112079965 0.000000000000000
-0.003682972283080 -0.052811135312160 0.000000000000000
-0.004665797850712 -0.054240160375676 0.000000000000000
-0.004476510073288 -0.057598842528769 0.000000000000000
-0.003491117314855 -0.059069887577430 0.000000000000000
-0.004630313663806 -0.060982479216654 0.000000000000000
-0.004565862530157 -0.064459474907180 0.000000000000000
-0.003820638730180 -0.065375590653258 0.000000000000000
-0.004966445726072 -0.068016014818577 0.000000000000000
-0.005118906243381 -0.071416446666769 0.000000000000000
-0.004098331177410 -0.073135999352872 0.000000000000000
-0.005130432698557 -0.074962362817838 0.000000000000000
-0.005152719263788 -0.078513447276403 0.000000000000000
-0.005152719263788 -0.078513447276403 0.000000000000000
-0.005140843225176 -0.082083402625511 0.000000000000000
-0.005096695384742 -0.085619481737069 0.000000000000000
-0.005096695384742 -0.085619481737069 0.000000000000000
-0.005036071071079 -0.089132007402784 0.000000000000000
-0.004951202615076 -0.092596575009867 0.000000000000000
-0.004951202615076 -0.092596575009867 0.000000000000000
-0.004836269386211 -0.095987200235602 0.000000000000000
-0.004695049837828 -0.099291688635502 0.000000000000000
-0.004695049837828 -0.099291688635502 0.000000000000000
-0.004525267211096 -0.102486589485636 0.000000000000000
-0.004327048562147 -0.105555399567872 0.000000000000000
-0.004327048562147 -0.105555399567872 0.000000000000000
-0.004095888745548 -0.108477011773145 0.000000000000000
-0.003173910363173 -0.110076385908096 0.000000000000000
-0.003839664404666 -0.111228468189443 0.000000000000000
-0.003556443744240 -0.113792394275601 0.000000000000000
-0.002722153473425 -0.115236960949267 0.000000000000000
-0.003250305352247 -0.116152676290357 0.000000000000000
-0.002922496118871 -0.118292675704142 0.000000000000000
-0.002199871862715 -0.119542104896396 0.000000000000000
-0.002579469836890 -0.120200145866826 0.000000000000000
-0.002203469972357 -0.121858838810668 0.000000000000000
-0.002203469972357 -0.121858838810668 0.000000000000000
-0.001804763991163 -0.123247222649469 0.000000000000000
-0.001412727513512 -0.124380536069334 0.000000000000000
-0.001412727513512 -0.124380536069334 0.000000000000000
-0.001004100694415 -0.125244912418815 0.000000000000000
-0.000644640218298 -0.125822445630898 0.000000000000000
-0.000644640218298 -0.125822445630898 0.000000000000000
-0.000211202583861 -0.126150173639966 0.000000000000000
0.000184640746160 -0.126143755760963 0.000000000000000
0.000184640746160 -0.126143755760963 0.000000000000000
0.000553071879207 -0.125914803096866 0.000000000000000
0.000921725183167 -0.125400271439907 0.000000000000000
0.000921725183167 -0.125400271439907 0.000000000000000
0.001172984192977 -0.124665803373667 0.000000000000000
0.001400341395643 -0.123605037109225 0.000000000000000
0.001400341395643 -0.123605037109225 0.000000000000000
0.002014219902401 -0.122486602978459 0.000000000000000
0.001697164731673 -0.121919792821264 0.000000000000000
0.002278049102357 -0.120864213528966 0.000000000000000
0.002453686506855 -0.119122621892889 0.000000000000000
0.002225061030851 -0.118837054318788 0.000000000000000
0.002788189627049 -0.117344779998621 0.000000000000000
0.003036606205468 -0.115175489641458 0.000000000000000
0.003036606205468 -0.115175489641458 0.000000000000000
0.003344842649777 -0.113061174900279 0.000000000000000
0.003475241976727 -0.110543382983187 0.000000000000000
0.003475241976727 -0.110543382983187 0.000000000000000
0.003509029882623 -0.108153394138850 0.000000000000000
0.003842800652328 -0.105396255726700 0.000000000000000
0.003842800652328 -0.105396255726700 0.000000000000000
0.004121909629165 -0.102750304707236 0.000000000000000
0.004056901567583 -0.100034506210029 0.000000000000000
0.004056901567583 -0.100034506210029 0.000000000000000
0.004251932084289 -0.096645594855614 0.000000000000000
0.000991659252673 -0.097117433455139 0.000000000000000
0.003457094510821 -0.094397807000674 0.000000000000000
0.003534743533970 -0.090967876831960 0.000000000000000
0.004381864176068 -0.088222900193410 0.000000000000000
0.003557039334933 -0.088872581029417 0.000000000000000
0.003345102279029 -0.085659105986782 0.000000000000000
0.003045729054398 -0.084300154991136 0.000000000000000
0.003836458947140 -0.081589578152812 0.000000000000000
0.004184744508962 -0.079285667176907 0.000000000000000
0.003404343441845 -0.077796346042751 0.000000000000000
0.004235286650640 -0.076389258588643 0.000000000000000
0.004152286242738 -0.073484893572916 0.000000000000000
0.004152286242738 -0.073484893572916 0.000000000000000
0.004133262469905 -0.070560717219524 0.000000000000000
0.004132374117735 -0.067688073837967 0.000000000000000
0.004132374117735 -0.067688073837967 0.000000000000000
0.004062926244322 -0.064853960048655 0.000000000000000
0.003993824908814 -0.062057762118710 0.000000000000000
0.003993824908814 -0.062057762118710 0.000000000000000
0.003920459756886 -0.059317901725791 0.000000000000000
0.003837877536587 -0.056617743121486 0.000000000000000
0.003837877536587 -0.056617743121486 0.000000000000000
0.003768229311175 -0.053981867733435 0.000000000000000
0.003705572209168 -0.051399141034675 0.000000000000000
0.003705572209168 -0.051399141034675 0.000000000000000
0.003663269958529 -0.048872701092126 0.000000000000000
0.003482709016296 -0.046703416969799 0.000000000000000
0.003482709016296 -0.046703416969799 0.000000000000000
0.003415444661869 -0.043879145741523 0.000000000000000
0.003415444661869 -0.043879145741523 0.000000000000000
0.003109259084127 -0.041649852674587 0.000000000000000
0.003144726664069 -0.039140990317274 0.000000000000000
0.002603453170715 -0.038108389416799 0.000000000000000
0.003258096889532 -0.036935165326286 0.000000000000000
0.003228249265057 -0.034861475232085 0.000000000000000
0.003228249265057 -0.034861475232085 0.000000000000000
0.002951632306581 -0.032729778918999 0.000000000000000
0.002931401129762 -0.030583241572954 0.000000000000000
0.002931401129762 -0.030583241572954 0.000000000000000
0.002900698034263 -0.028341231504714 0.000000000000000
0.002795913579074 -0.026441118589100 0.000000000000000
0.002795913579074 -0.026441118589100 0.000000000000000
0.002747528153268 -0.024339509538155 0.000000000000000
0.002246985214264 -0.022976052900005 0.000000000000000
0.002606948131795 -0.022525388357822 0.000000000000000
0.002712402064746 -0.020657944784832 0.000000000000000
0.002206404601239 -0.019554031874615 0.000000000000000
0.002661249596407 -0.018881804283432 0.000000000000000
0.002603828778168 -0.017038607246380 0.000000000000000
0.002092653042640 -0.015975037686446 0.000000000000000
0.002538696140303 -0.015246648807992 0.000000000000000
0.002526138760599 -0.013489758860392 0.000000000000000
0.001975855234606 -0.012547760767605 0.000000000000000
0.002477261570322 -0.011805500558465 0.000000000000000
0.002319769062389 -0.010041953853805 0.000000000000000
0.001832875583947 -0.009327250833322 0.000000000000000
0.002369970447985 -0.008338463954405 0.000000000000000
0.002280178801887 -0.006633506335348 0.000000000000000
0.001885421770357 -0.006141836046867 0.000000000000000
0.002342101633500 -0.005055038951586 0.000000000000000
0.002356000778737 -0.003292552498555 0.000000000000000
0.002356000778737 -0.003292552498555 0.000000000000000
0.001938727806150 -0.002083828751205 0.000000000000000
0.001827669179320 -0.000400298737470 0.000000000000000
0.000508450462089 0.000180405187116 0.000000000000000
0.000668224242942 0.000493393228306 0.000000000000000
0.000396698812847 0.000397922928199 0.000000000000000
0.000396455384311 0.000781617705744 0.000000000000000
0.000502170829066 0.000981406012253 0.000000000000000
0.000497961188741 0.001320405554567 0.000000000000000
0.000389256218306 0.001509544107077 0.000000000000000
0.000389256218306 0.001509544107077 0.000000000000000
0.000383612236977 0.001895169728354 0.000000000000000
0.000673912725297 0.002193136522416 0.000000000000000
0.000375234010571 0.002102593299677 0.000000000000000
0.000379153404848 0.002490421599261 0.000000000000000
0.000353584106718 0.002792815995052 0.000000000000000
0.000353584106718 0.002792815995052 0.000000000000000
0.000342361975430 0.003089885408401 0.000000000000000
0.000346160454157 0.003384744512769 0.000000000000000
0.000346160454157 0.003384744512769 0.000000000000000
0.000356211287996 0.003686979941136 0.000000000000000
0.000444316213330 0.003852855865019 0.000000000000000
0.000348835712195 0.004055899742687 0.000000000000000
0.000397422725210 0.004217805486404 0.000000000000000
0.000447233045237 0.004526594172715 0.000000000000000
0.000560683422245 0.004799120957733 0.000000000000000
0.000394281312470 0.004708508053447 0.000000000000000
0.000403387583671 0.005008009913926 0.000000000000000
0.000303420035924 0.005170533067857 0.000000000000000
0.000297108544272 0.005460482397844 0.000000000000000
0.000493616805658 0.005405631866594 0.000000000000000
0.000268332817241 0.005629194484124 0.000000000000000