# vtk DataFile Version 2.0
B_vector
ASCII
DATASET STRUCTURED_POINTS
DIMENSIONS 257 257 1
ORIGIN 0.000000 0.000000 0.000000
SPACING 8.000000 8.000000 1
CELL_DATA 65536
VECTORS B float
0.000750906765461 0.001901602372527 0.000000000000000
-0.001145388931036 0.001239193603396 0.000000000000000
-0.000305067747831 0.000044677406549 0.000000000000000
0.000390015542507 0.002209117636085 0.000000000000000
0.000575697049499 0.001620884053409 0.000000000000000
0.000771487131715 0.002680077217519 0.000000000000000
0.000271257013083 0.001348508521914 0.000000000000000
-0.000564392656088 0.002360305748880 0.000000000000000
0.000308003276587 0.002208524383605 0.000000000000000
-0.000595650635660 0.002894265577197 0.000000000000000
-0.000647522509098 0.001489565707743 0.000000000000000
-0.000755585730076 0.003080843016505 0.000000000000000
0.000034000724554 0.002732562832534 0.000000000000000
-0.000248143449426 0.004070404917002 0.000000000000000
0.000050522387028 0.003110187128186 0.000000000000000
-0.000236500054598 0.004092572256923 0.000000000000000
0.000515223480761 0.003694368526340 0.000000000000000
-0.000682127662003 0.004561528563499 0.000000000000000
-0.000718824565411 0.003648815676570 0.000000000000000
-0.000728210434318 0.004404650069773 0.000000000000000
0.000391042791307 0.005062930285931 0.000000000000000
-0.000050511211157 0.005317034199834 0.000000000000000
0.000163199380040 0.004801142960787 0.000000000000000
-0.000414761714637 0.004590542986989 0.000000000000000
0.000126758590341 0.005244859494269 0.000000000000000
-0.000721137039363 0.004940860904753 0.000000000000000
-0.000707890838385 0.004249302670360 0.000000000000000
-0.000679234042764 0.004614412784576 0.000000000000000
-0.000059415586293 0.005168055184186 0.000000000000000
-0.000402016565204 0.005715848878026 0.000000000000000
-0.000061974860728 0.005071554332972 0.000000000000000
-0.000467089936137 0.006016660481691 0.000000000000000
-0.000106476247311 0.005683733150363 0.000000000000000
-0.000505621545017 0.006413665600121 0.000000000000000
-0.000398015603423 0.005413493141532 0.000000000000000
-0.000361518934369 0.006381323561072 0.000000000000000
0.000040731392801 0.006584377028048 0.000000000000000
-0.000161556527019 0.007517269812524 0.000000000000000
0.000417437404394 0.006485081277788 0.000000000000000
-0.000624612905085 0.007363742217422 0.000000000000000
0.000308711081743 0.007524014450610 0.000000000000000
-0.001024991273880 0.008071112446487 0.000000000000000
-0.000592479482293 0.007256533019245 0.000000000000000
-0.000325649976730 0.008673731237650 0.000000000000000
0.000282817520201 0.008626906201243 0.000000000000000
-0.000201625749469 0.009457709267735 0.000000000000000
0.000118638388813 0.008913648314774 0.000000000000000
-0.001058602705598 0.009786425158381 0.000000000000000
0.000093832612038 0.009712952189147 0.000000000000000
-0.000715957954526 0.009680561721325 0.000000000000000
-0.000477788038552 0.008532903157175 0.000000000000000
-0.001050240360200 0.010093457065523 0.000000000000000
0.000293921679258 0.010145541280508 0.000000000000000
-0.000019840896130 0.010363342240453 0.000000000000000
0.000367362983525 0.010039035230875 0.000000000000000
-0.000860458239913 0.009566325694323 0.000000000000000
0.000024340115488 0.010787488892674 0.000000000000000
-0.000906371511519 0.010479927062988 0.000000000000000
-0.000921685248613 0.010007899254560 0.000000000000000
-0.000799855217338 0.010643534362316 0.000000000000000
-0.000247100368142 0.011094525456429 0.000000000000000
-0.000486353412271 0.012078884989023 0.000000000000000
0.000041077844799 0.011865372769535 0.000000000000000
-0.000322910025716 0.011988518759608 0.000000000000000
-0.000086423009634 0.012233298271894 0.000000000000000
-0.000789757817984 0.012242858298123 0.000000000000000
-0.000597135163844 0.011498380452394 0.000000000000000
-0.000699957832694 0.012754060328007 0.000000000000000
0.000088837929070 0.013227703981102 0.000000000000000
-0.000290817581117 0.013800792396069 0.000000000000000
0.000347513705492 0.013562113046646 0.000000000000000
-0.000546168535948 0.013227836228907 0.000000000000000
-0.000044154003263 0.014122142456472 0.000000000000000
-0.001582665368915 0.014038261957467 0.000000000000000
-0.001115646213293 0.013281872496009 0.000000000000000
-0.000277007929981 0.014168462716043 0.000000000000000
0.000419761985540 0.015134810470045 0.000000000000000
-0.000239510089159 0.015679510310292 0.000000000000000
0.000056592747569 0.016019441187382 0.000000000000000
-0.000606102868915 0.015606192871928 0.000000000000000
-0.000109907239676 0.016821095719934 0.000000000000000
-0.000924828462303 0.016736034303904 0.000000000000000
-0.000779125839472 0.016026739031076 0.000000000000000
-0.000749846920371 0.016753636300564 0.000000000000000
0.000260218977928 0.018127299845219 0.000000000000000
-0.000495890155435 0.017253967002034 0.000000000000000
0.000234334729612 0.018095238134265 0.000000000000000
-0.000345438718796 0.017422983422875 0.000000000000000
0.000502756796777 0.019282149150968 0.000000000000000
-0.000338606536388 0.019993077963591 0.000000000000000
-0.001085943542421 0.019622951745987 0.000000000000000
-0.001767965033650 0.020251963287592 0.000000000000000
-0.000935710966587 0.021763253957033 0.000000000000000
-0.000966570340097 0.022720130160451 0.000000000000000
-0.000428795814514 0.023637359961867 0.000000000000000
-0.000612975098193 0.025190353393555 0.000000000000000
-0.001361442729831 0.025308441370726 0.000000000000000
-0.001935925334692 0.026881152763963 0.000000000000000
-0.000788163393736 0.024385664612055 0.000000000000000
-0.000058924779296 0.026193518191576 0.000000000000000
0.000185334123671 0.026411559432745 0.000000000000000
0.000501114875078 0.027471745386720 0.000000000000000
0.001095146872103 0.027428958564997 0.000000000000000
-0.000600378029048 0.027184735983610 0.000000000000000
-0.000204250216484 0.026804074645042 0.000000000000000
-0.001678838394582 0.029025498777628 0.000000000000000
-0.001404779963195 0.027222927659750 0.000000000000000
-0.000765301287174 0.030729705467820 0.000000000000000
0.000735778361559 0.031280625611544 0.000000000000000
0.000345615670085 0.030903236940503 0.000000000000000
-0.001228277571499 0.032055426388979 0.000000000000000
-0.002049162983894 0.031365830451250 0.000000000000000
-0.001304879784584 0.032083496451378 0.000000000000000
-0.002334872260690 0.032015960663557 0.000000000000000
-0.001826032996178 0.031374145299196 0.000000000000000
-0.001487256959081 0.033137869089842 0.000000000000000
0.000770218670368 0.034944582730532 0.000000000000000
0.000130619853735 0.033625006675720 0.000000000000000
0.000049835070968 0.035381793975830 0.000000000000000
-0.001343468204141 0.033829864114523 0.000000000000000
0.000159544870257 0.036289207637310 0.000000000000000
-0.000437465496361 0.037237256765366 0.000000000000000
-0.001516575925052 0.037532076239586 0.000000000000000
-0.001962946727872 0.038359567523003 0.000000000000000
-0.000742977485061 0.040914498269558 0.000000000000000
-0.001209845766425 0.041133925318718 0.000000000000000
-0.000818236730993 0.039967171847820 0.000000000000000
-0.000968857668340 0.042185261845589 0.000000000000000
-0.000239402055740 0.041513010859489 0.000000000000000
-0.000921037048101 0.042269304394722 0.000000000000000
-0.001334800384939 0.041774183511734 0.000000000000000
-0.001580018550158 0.042248606681824 0.000000000000000
0.000036278739572 0.044737882912159 0.000000000000000
-0.000057265162468 0.044966299086809 0.000000000000000
-0.001543505117297 0.045377947390079 0.000000000000000
-0.000952848233283 0.045562706887722 0.000000000000000
-0.001042275689542 0.047458805143833 0.000000000000000
-0.002206452190876 0.050806969404221 0.000000000000000
-0.001673728227615 0.050286993384361 0.000000000000000
0.000091874971986 0.051632478833199 0.000000000000000
0.000425977632403 0.051655046641827 0.000000000000000
-0.000243902206421 0.053038761019707 0.000000000000000
-0.001248780637980 0.052068606019020 0.000000000000000
-0.001453051343560 0.052099645137787 0.000000000000000
-0.001624989323318 0.053071141242981 0.000000000000000
-0.001415912061930 0.055651202797890 0.000000000000000
-0.001450669020414 0.056219458580017 0.000000000000000
-0.001373797655106 0.055539287626743 0.000000000000000
-0.001159869134426 0.056304797530174 0.000000000000000
-0.002133917063475 0.059417843818665 0.000000000000000
-0.000846585258842 0.060507483780384 0.000000000000000
-0.001192069612443 0.061801247298717 0.000000000000000
-0.000400727614760 0.060794122517109 0.000000000000000
-0.000608310103416 0.063973821699619 0.000000000000000
-0.000069229863584 0.063560262322426 0.000000000000000
-0.000483911484480 0.063651412725449 0.000000000000000
0.000297344289720 0.061787821352482 0.000000000000000
0.001489156857133 0.065682165324688 0.000000000000000
0.001362940296531 0.065633676946163 0.000000000000000
0.000052693299949 0.065875224769115 0.000000000000000
-0.001040844246745 0.068079277873039 0.000000000000000
-0.002184796147048 0.072239868342876 0.000000000000000
-0.000848519615829 0.073780871927738 0.000000000000000
0.000313667580485 0.074787415564060 0.000000000000000
0.000154072418809 0.072852984070778 0.000000000000000
0.000535810366273 0.079073563218117 0.000000000000000
0.000681922771037 0.077292792499065 0.000000000000000
-0.000195958651602 0.077025234699249 0.000000000000000
-0.001189112663269 0.078685387969017 0.000000000000000
-0.002577072009444 0.084547825157642 0.000000000000000
0.000247457064688 0.087948210537434 0.000000000000000
-0.000422781333327 0.088740848004818 0.000000000000000
0.000016343779862 0.085475340485573 0.000000000000000
-0.000464675948024 0.090865768492222 0.000000000000000
0.000950463116169 0.091036267578602 0.000000000000000
-0.000201739370823 0.090531513094902 0.000000000000000
0.000746060162783 0.090506486594677 0.000000000000000
0.000261547043920 0.094386190176010 0.000000000000000
0.002659545745701 0.095919616520405 0.000000000000000
-0.000011576339602 0.095367573201656 0.000000000000000
0.000437764450908 0.092995718121529 0.000000000000000
-0.001225125044584 0.095516242086887 0.000000000000000
0.000490157864988 0.094256371259689 0.000000000000000
0.001400280743837 0.093430913984776 0.000000000000000
0.001584310084581 0.091484807431698 0.000000000000000
0.001046178862453 0.098034612834454 0.000000000000000
0.001710793003440 0.100370056927204 0.000000000000000
-0.000911852344871 0.099368982017040 0.000000000000000
-0.000126484781504 0.100564993917942 0.000000000000000
-0.002741845324636 0.104822151362896 0.000000000000000
0.000094834715128 0.107427768409252 0.000000000000000
0.000461639836431 0.107757382094860 0.000000000000000
0.001101385802031 0.107609532773495 0.000000000000000
0.000089777633548 0.109775878489017 0.000000000000000
0.001952242106199 0.112810127437115 0.000000000000000
0.000462129712105 0.108885295689106 0.000000000000000
0.001112686470151 0.110771164298058 0.000000000000000
-0.002145942300558 0.110734261572361 0.000000000000000
0.001476502977312 0.109913997352123 0.000000000000000
-0.000199781730771 0.110122568905354 0.000000000000000
0.001111064106226 0.105085395276546 0.000000000000000
0.000481741502881 0.107864521443844 0.000000000000000
0.001068240962923 0.109056308865547 0.000000000000000
-0.001122644171119 0.105047836899757 0.000000000000000
-0.000936395488679 0.105484142899513 0.000000000000000
-0.003720890730619 0.111444197595119 0.000000000000000
-0.000673447735608 0.113710053265095 0.000000000000000
-0.000710724852979 0.114017121493816 0.000000000000000
0.002433390356600 0.115213051438332 0.000000000000000
-0.000174500979483 0.116952918469906 0.000000000000000
0.003468960523605 0.118354029953480 0.000000000000000
0.001274967566133 0.118678949773312 0.000000000000000
0.001897659152746 0.115124143660069 0.000000000000000
-0.001020779833198 0.117565535008907 0.000000000000000
0.000512466765940 0.115320272743702 0.000000000000000
-0.002722815610468 0.112687468528748 0.000000000000000
-0.000303527340293 0.112099550664425 0.000000000000000
-0.002565650269389 0.113819189369678 0.000000000000000
-0.000732896849513 0.115778870880604 0.000000000000000
-0.002330576069653 0.113865911960602 0.000000000000000
0.000032274052501 0.113867565989494 0.000000000000000
-0.002802871167660 0.114796273410320 0.000000000000000
-0.000635628588498 0.112504221498966 0.000000000000000
-0.003010379150510 0.111779950559139 0.000000000000000
-0.000795680098236 0.108284004032612 0.000000000000000
-0.001528497785330 0.108557321131229 0.000000000000000
-0.000620982609689 0.106852263212204 0.000000000000000
-0.001557679846883 0.104157291352749 0.000000000000000
-0.000481731258333 0.101899512112141 0.000000000000000
-0.002578921616077 0.102232970297337 0.000000000000000
-0.000647488050163 0.099267832934856 0.000000000000000
-0.003200468607247 0.098409354686737 0.000000000000000
-0.000451049767435 0.095307990908623 0.000000000000000
-0.000926479697227 0.095855310559273 0.000000000000000
0.001337764784694 0.094638019800186 0.000000000000000
-0.002336636185646 0.092093534767628 0.000000000000000
-0.000839749351144 0.087675355374813 0.000000000000000
-0.002443687990308 0.088174827396870 0.000000000000000
-0.000414093956351 0.084464743733406 0.000000000000000
-0.002384059131145 0.083522401750088 0.000000000000000
-0.000641269609332 0.075442269444466 0.000000000000000
-0.001846995204687 0.073242008686066 0.000000000000000
0.000760348513722 0.070744261145592 0.000000000000000
-0.002251033671200 0.066896751523018 0.000000000000000
-0.000900551676750 0.059050418436527 0.000000000000000
-0.002626691013575 0.059350587427616 0.000000000000000
0.000840693712234 0.051305629312992 0.000000000000000
-0.003183888271451 0.050366118550301 0.000000000000000
0.000054970383644 0.041764467954636 0.000000000000000
-0.002622392959893 0.039029259234667 0.000000000000000
-0.000816986896098 0.028771761804819 0.000000000000000
-0.001065379008651 0.025691509246826 0.000000000000000
-0.001817427575588 0.020834989845753 0.000000000000000
-0.000278716906905 0.015114868059754 0.000000000000000
-0.003233643248677 0.007488795556128 0.000000000000000
-0.003842005506158 0.003229010850191 0.000000000000000
-0.001699673011899 -0.001200169324875 0.000000000000000
0.001597534865141 0.000115731731057 0.000000000000000
-0.000010130926967 0.002687279134989 0.000000000000000
-0.000116268172860 0.001820648089051 0.000000000000000
-0.001588601619005 0.002685524523258 0.000000000000000
0.000976793467999 0.000765779986978 0.000000000000000
-0.001369153149426 0.001743388362229 0.000000000000000
-0.000219325534999 0.002122281119227 0.000000000000000
-0.001058904454112 0.002217028290033 0.000000000000000
0.000487485900521 0.001940922811627 0.000000000000000
-0.001285352744162 0.003669166006148 0.000000000000000
-0.000485645607114 0.003468940034509 0.000000000000000
-0.001202122308314 0.003111381083727 0.000000000000000
0.000631082803011 0.002877203747630 0.000000000000000
-0.001116598024964 0.003939363174140 0.000000000000000
-0.000008690170944 0.003774272277951 0.000000000000000
-0.000937910750508 0.003882936201990 0.000000000000000
0.000638021156192 0.002665923908353 0.000000000000000
-0.000748118385673 0.004508083686233 0.000000000000000
-0.000095359981060 0.004582777619362 0.000000000000000
-0.001029601320624 0.004256349056959 0.000000000000000
0.000790128484368 0.003993771970272 0.000000000000000
-0.000901487655938 0.005098838359118 0.000000000000000
-0.000293052755296 0.005090566352010 0.000000000000000
-0.001238409429789 0.005293746478856 0.000000000000000
0.000685025006533 0.004460308700800 0.000000000000000
-0.000769379548728 0.005867075175047 0.000000000000000
-0.000112306326628 0.005823688581586 0.000000000000000
-0.001218965277076 0.005281925201416 0.000000000000000
0.000613184645772 0.004663009196520 0.000000000000000
-0.001076561398804 0.005991323851049 0.000000000000000
-0.000409757718444 0.005973717197776 0.000000000000000
-0.001453193835914 0.006296907551587 0.000000000000000
0.000645110383630 0.005374794825912 0.000000000000000
-0.000775386579335 0.006985910236835 0.000000000000000
-0.000009426847100 0.007058981806040 0.000000000000000
-0.001336045563221 0.006515374407172 0.000000000000000
0.000863863155246 0.006059290841222 0.000000000000000
-0.001069695688784 0.007468722760677 0.000000000000000
0.000019519589841 0.007793849334121 0.000000000000000
-0.001007279381156 0.007870577275753 0.000000000000000
0.000664012506604 0.007216421887279 0.000000000000000
-0.000711827538908 0.008859133347869 0.000000000000000
0.000139228068292 0.008869532495737 0.000000000000000
-0.001292170025408 0.008491543121636 0.000000000000000
0.000699300318956 0.008261321112514 0.000000000000000
-0.001007531769574 0.009681029245257 0.000000000000000
-0.000380301848054 0.009938482195139 0.000000000000000
-0.001417525112629 0.010003831237555 0.000000000000000
0.000562999397516 0.009022859856486 0.000000000000000
-0.000786102376878 0.010213283821940 0.000000000000000
0.000111426226795 0.010137895122170 0.000000000000000
-0.001276817172766 0.009846910834312 0.000000000000000
0.000620484352112 0.009533248841763 0.000000000000000
-0.000931732356548 0.010878974571824 0.000000000000000
0.000108979642391 0.010757550597191 0.000000000000000
-0.001199275255203 0.011044807732105 0.000000000000000
0.000669628381729 0.010273938998580 0.000000000000000
-0.000854252837598 0.011447994038463 0.000000000000000
-0.000092588365078 0.011608647182584 0.000000000000000
-0.001382330432534 0.011416995897889 0.000000000000000
0.000791434198618 0.010902103036642 0.000000000000000
-0.000774241052568 0.012079926207662 0.000000000000000
-0.000084874220192 0.012288827449083 0.000000000000000
-0.001292421482503 0.012515315786004 0.000000000000000
0.000705657526851 0.011740854009986 0.000000000000000
-0.000579471699893 0.013251664116979 0.000000000000000
0.000198976136744 0.013469554483891 0.000000000000000
-0.001296725124121 0.013228404335678 0.000000000000000
0.000773115083575 0.012929145246744 0.000000000000000
-0.000981494784355 0.013986940495670 0.000000000000000
-0.000142766162753 0.014145258814096 0.000000000000000
-0.001307961530983 0.014206651598215 0.000000000000000
0.000520059838891 0.013707896694541 0.000000000000000
-0.000916866585612 0.015160772949457 0.000000000000000
0.000098373740911 0.015117606148124 0.000000000000000
-0.001299036666751 0.014997344464064 0.000000000000000
0.000892722979188 0.014599803835154 0.000000000000000
-0.000743206590414 0.016062388196588 0.000000000000000
-0.000241646543145 0.016042619943619 0.000000000000000
-0.001331516541541 0.016628824174404 0.000000000000000
0.000864522531629 0.016257166862488 0.000000000000000
-0.000488207675517 0.018017981201410 0.000000000000000
0.000470305792987 0.017928095534444 0.000000000000000
-0.000702708959579 0.017912842333317 0.000000000000000
0.001255579292774 0.017197130247951 0.000000000000000
-0.000857984647155 0.018558779731393 0.000000000000000
0.000117155723274 0.018635900691152 0.000000000000000
-0.001425405964255 0.019103791564703 0.000000000000000
0.001017043367028 0.019426725804806 0.000000000000000
-0.000703787431121 0.022073758766055 0.000000000000000
-0.000242339447141 0.022411102429032 0.000000000000000
-0.001317275688052 0.022506166249514 0.000000000000000
0.000818734988570 0.021912088617682 0.000000000000000
-0.001669689081609 0.023879013955593 0.000000000000000
-0.000831412151456 0.025122482329607 0.000000000000000
-0.001935437321663 0.024684902280569 0.000000000000000
0.001056440174580 0.024548377841711 0.000000000000000
-0.000471675768495 0.025983761996031 0.000000000000000
0.000028483569622 0.026260791346431 0.000000000000000
-0.001341490074992 0.025843143463135 0.000000000000000
0.000967850908637 0.025246264412999 0.000000000000000
-0.000911029987037 0.027220513671637 0.000000000000000
-0.000111853703856 0.027199184522033 0.000000000000000
-0.001112403348088 0.026345038786530 0.000000000000000
0.001186020672321 0.026899093762040 0.000000000000000
-0.000695797614753 0.029690157622099 0.000000000000000
0.000401358120143 0.030973939225078 0.000000000000000
-0.001641268841922 0.030781134963036 0.000000000000000
0.000465638935566 0.029924977570772 0.000000000000000
-0.001459794119000 0.031842909753323 0.000000000000000
-0.000858473591506 0.032056093215942 0.000000000000000
-0.002239795401692 0.031592659652233 0.000000000000000
0.000667426735163 0.030776912346482 0.000000000000000
-0.000894180499017 0.032808303833008 0.000000000000000
0.000072118826210 0.033982418477535 0.000000000000000
-0.001647749915719 0.034676291048527 0.000000000000000
0.000950068235397 0.033232644200325 0.000000000000000
-0.000930547714233 0.035172030329704 0.000000000000000
0.000013799406588 0.035394400358200 0.000000000000000
-0.001711388118565 0.035917319357395 0.000000000000000
0.000683220103383 0.037129908800125 0.000000000000000
-0.001705625094473 0.039840720593929 0.000000000000000
-0.000900914892554 0.040848940610886 0.000000000000000
-0.002250604331493 0.041530922055244 0.000000000000000
0.000289969146252 0.039943791925907 0.000000000000000
-0.002088017761707 0.041481211781502 0.000000000000000
-0.000403510406613 0.042777992784977 0.000000000000000
-0.001951409503818 0.042292177677155 0.000000000000000
0.000607049092650 0.042262911796570 0.000000000000000
-0.000985803082585 0.044807054102421 0.000000000000000
0.000607559457421 0.045007526874542 0.000000000000000
-0.001293135806918 0.045691408216953 0.000000000000000
0.000775758177042 0.045148640871048 0.000000000000000
-0.001534239389002 0.048003364354372 0.000000000000000
-0.000003948807716 0.048984780907631 0.000000000000000
-0.001075504347682 0.049084052443504 0.000000000000000
0.001112943515182 0.049355447292328 0.000000000000000
-0.001059625297785 0.051904283463955 0.000000000000000
0.000620307400823 0.052508734166622 0.000000000000000
-0.001004307530820 0.052868954837322 0.000000000000000
0.000645443797112 0.051617078483105 0.000000000000000
-0.000766347162426 0.054208345711231 0.000000000000000
0.000168350525200 0.054353259503841 0.000000000000000
-0.000983417965472 0.055205434560776 0.000000000000000
0.000895220786333 0.055860228836536 0.000000000000000
-0.000727022066712 0.058752723038197 0.000000000000000
-0.000346172600985 0.058296583592892 0.000000000000000
-0.001597343012691 0.059168078005314 0.000000000000000
0.000317111611366 0.059476226568222 0.000000000000000
-0.001376827247441 0.062338761985302 0.000000000000000
-0.001084567978978 0.063529118895531 0.000000000000000
-0.001882961019874 0.063642211258411 0.000000000000000
0.000985261052847 0.063782006502151 0.000000000000000
-0.000511487945914 0.065845966339111 0.000000000000000
-0.000144125893712 0.064864598214626 0.000000000000000
-0.001583850942552 0.065796077251434 0.000000000000000
0.000947274267673 0.066005975008011 0.000000000000000
-0.000483556650579 0.069492697715759 0.000000000000000
-0.000566941685975 0.069265134632587 0.000000000000000
-0.002130281180143 0.070531196892262 0.000000000000000
0.001181036233902 0.071499839425087 0.000000000000000
-0.001129151321948 0.074230626225471 0.000000000000000
0.000168854370713 0.075425617396832 0.000000000000000
-0.001684524118900 0.075684338808060 0.000000000000000
0.000648744404316 0.077422171831131 0.000000000000000
0.000627626664937 0.081042513251305 0.000000000000000
0.001704944297671 0.080097362399101 0.000000000000000
-0.000261701643467 0.080540858209133 0.000000000000000
0.001600485295057 0.082152679562569 0.000000000000000
0.000353936105967 0.085166417062283 0.000000000000000
0.001469507813454 0.087372310459614 0.000000000000000
0.000361217185855 0.088485032320023 0.000000000000000
0.002005036920309 0.088544614613056 0.000000000000000
0.001427931711078 0.091473199427128 0.000000000000000
0.002630479633808 0.090535707771778 0.000000000000000
0.001096783205867 0.091471932828426 0.000000000000000
0.004096809774637 0.091741286218166 0.000000000000000
0.002892086282372 0.094542913138866 0.000000000000000
0.003046603873372 0.094695799052715 0.000000000000000
0.001145293004811 0.096569374203682 0.000000000000000
0.003614850342274 0.095482818782330 0.000000000000000
0.002317484933883 0.097384862601757 0.000000000000000
0.004514468833804 0.096713446080685 0.000000000000000
0.001260628923774 0.097265757620335 0.000000000000000
0.002660527825356 0.099293373525143 0.000000000000000
0.002090591937304 0.102035224437714 0.000000000000000
0.002276426181197 0.101154066622257 0.000000000000000
-0.000114937312901 0.104506231844425 0.000000000000000
0.001878913491964 0.104713872075081 0.000000000000000
-0.000031813979149 0.106925792992115 0.000000000000000
0.002304820343852 0.108206793665886 0.000000000000000
0.000035997480154 0.107947312295437 0.000000000000000
0.002660471946001 0.109440527856350 0.000000000000000
0.002820624969900 0.110099136829376 0.000000000000000
0.002936240285635 0.108032830059528 0.000000000000000
0.000323516316712 0.111724562942982 0.000000000000000
0.003278449177742 0.110680721700191 0.000000000000000
0.002727811224759 0.111082687973976 0.000000000000000
0.004307458177209 0.109159640967846 0.000000000000000
0.001231378875673 0.109142743051052 0.000000000000000
0.002891581505537 0.110225997865200 0.000000000000000
0.002391199115664 0.111653216183186 0.000000000000000
0.003096837550402 0.108336858451366 0.000000000000000
-0.000572979450226 0.111506350338459 0.000000000000000
0.001615501940250 0.113012306392193 0.000000000000000
0.000380318611860 0.115511693060398 0.000000000000000
0.004235126078129 0.116459228098392 0.000000000000000
0.002313192002475 0.116953559219837 0.000000000000000
0.004936475306749 0.117493703961372 0.000000000000000
0.004126785323024 0.117245383560658 0.000000000000000
0.004737779498100 0.116166718304157 0.000000000000000
0.000528847798705 0.119903422892094 0.000000000000000
0.002701334655285 0.119865402579308 0.000000000000000
0.001650745980442 0.120209567248821 0.000000000000000
0.002328164875507 0.116976037621498 0.000000000000000
-0.001916698180139 0.117274813354015 0.000000000000000
0.000498235225677 0.118732288479805 0.000000000000000
-0.001352032646537 0.118302069604397 0.000000000000000
-0.000337816774845 0.115714132785797 0.000000000000000
-0.004046465270221 0.119316451251507 0.000000000000000
-0.001079566776752 0.119047917425632 0.000000000000000
-0.002780078910291 0.118747092783451 0.000000000000000
-0.000818379223347 0.116427011787891 0.000000000000000
-0.005016157403588 0.114968582987785 0.000000000000000
-0.001535423099995 0.114976279437542 0.000000000000000
-0.003551433794200 0.113063849508762 0.000000000000000
-0.002664376050234 0.108980350196362 0.000000000000000
-0.006204977631569 0.110035128891468 0.000000000000000
-0.002863951027393 0.108827434480190 0.000000000000000
-0.004738523624837 0.106027029454708 0.000000000000000
-0.004208108410239 0.101226396858692 0.000000000000000
-0.007352497428656 0.099035538733006 0.000000000000000
-0.004689637571573 0.100056976079941 0.000000000000000
-0.006423655897379 0.096335507929325 0.000000000000000
-0.006573911756277 0.092222221195698 0.000000000000000
-0.008718041703105 0.092654056847095 0.000000000000000
-0.005065750330687 0.089941672980785 0.000000000000000
-0.007061749696732 0.087508946657181 0.000000000000000
-0.005978332832456 0.084028132259846 0.000000000000000
-0.009172169491649 0.079177834093571 0.000000000000000
-0.008048262447119 0.076513879001141 0.000000000000000
-0.007893018424511 0.071524120867252 0.000000000000000
-0.007539445534348 0.064743876457214 0.000000000000000
-0.009117968380451 0.062891706824303 0.000000000000000
-0.006224542856216 0.057573437690735 0.000000000000000
-0.007191535085440 0.053542345762253 0.000000000000000
-0.008429894223809 0.048181876540184 0.000000000000000
-0.010145176202059 0.044197060167789 0.000000000000000
-0.008738603442907 0.037435442209244 0.000000000000000
-0.008992446586490 0.033100351691246 0.000000000000000
-0.010142633691430 0.027826344594359 0.000000000000000
-0.012878708541393 0.023420181125402 0.000000000000000
-0.007245022803545 0.015750052407384 0.000000000000000
-0.008925294503570 0.013199243694544 0.000000000000000
-0.006282549351454 0.003901638090611 0.000000000000000
0.000709583982825 0.000068936496973 0.000000000000000
0.001141469925642 0.002840276807547 0.000000000000000
0.001342794857919 0.000845260918140 0.000000000000000
-0.000823464244604 0.003368396311998 0.000000000000000
0.000507280230522 0.001497540622950 0.000000000000000
-0.000609129667282 0.001807283610106 0.000000000000000
0.000414909794927 0.000795621424913 0.000000000000000
-0.000414576381445 0.004355669952929 0.000000000000000
0.000345665961504 0.001805896870792 0.000000000000000
-0.000104334205389 0.002957453951240 0.000000000000000
0.000445550307631 0.001661249436438 0.000000000000000
-0.001091994345188 0.004880830645561 0.000000000000000
-0.000102300196886 0.002586571499705 0.000000000000000
-0.000251298770308 0.003853665664792 0.000000000000000
0.000150474719703 0.002565272152424 0.000000000000000
-0.000906893983483 0.005689980462193 0.000000000000000
-0.000062676146626 0.003005028702319 0.000000000000000
-0.000217318534851 0.003899233415723 0.000000000000000
0.000484731979668 0.002588273026049 0.000000000000000
-0.000916273333132 0.005880089476705 0.000000000000000
-0.000041276216507 0.003747731447220 0.000000000000000
-0.000025759451091 0.004747867584229 0.000000000000000
0.000497548840940 0.003619204275310 0.000000000000000
-0.001002637669444 0.007015975192189 0.000000000000000
-0.000181457959116 0.004276845604181 0.000000000000000
-0.000153718516231 0.005176719278097 0.000000000000000
0.000523181632161 0.003907534293830 0.000000000000000
-0.001154517754912 0.007048248313367 0.000000000000000
-0.000176176428795 0.004646621644497 0.000000000000000
-0.000084697268903 0.005488397553563 0.000000000000000
0.000549308024347 0.004377775825560 0.000000000000000
-0.001002829521894 0.007916430011392 0.000000000000000
-0.000014574266970 0.005288571119308 0.000000000000000