# vtk DataFile Version 2.0
B_vector
ASCII
DATASET STRUCTURED_POINTS
DIMENSIONS 257 257 1
ORIGIN 0.000000 0.000000 0.000000
SPACING 8.000000 8.000000 1
CELL_DATA 65536
VECTORS B float
0.000127305460736 0.000125582485652 0.000000000000000
0.000082507639170 0.000261827631481 0.000000000000000
0.000156850770680 0.000410027239889 0.000000000000000
0.000151135941134 0.000669004703172 0.000000000000000
0.000070670296175 0.000800514801999 0.000000000000000
0.000151012437564 0.000941417208402 0.000000000000000
0.000156695548927 0.001221906069100 0.000000000000000
0.000091563131978 0.001316005589029 0.000000000000000
0.000171618675724 0.001484614653228 0.000000000000000
0.000087951897252 0.001645494879422 0.000000000000000
0.000073765796843 0.001902970987345 0.000000000000000
0.000156060591532 0.002035599201971 0.000000000000000
0.000076786424696 0.002176237369462 0.000000000000000
0.000157207755723 0.002312541728051 0.000000000000000
0.000160595217215 0.002590683078702 0.000000000000000
0.000079361010921 0.002728486989495 0.000000000000000
0.000161816434773 0.002871307030987 0.000000000000000
0.000167221774587 0.003166457246108 0.000000000000000
0.000084792474220 0.003292352937273 0.000000000000000
0.000169424137137 0.003444884537510 0.000000000000000
0.000150335158665 0.003730827027156 0.000000000000000
0.000069383143076 0.003824385106505 0.000000000000000
0.000172963252153 0.004039521338692 0.000000000000000
0.000175531791611 0.004330747719219 0.000000000000000
0.000087716516093 0.004480446808001 0.000000000000000
0.000177444473792 0.004635858888019 0.000000000000000
0.000178461298078 0.004944399855418 0.000000000000000
0.000089502288765 0.005097843219819 0.000000000000000
0.000182380873283 0.005257337261473 0.000000000000000
0.000183476835700 0.005574854619835 0.000000000000000
0.000087271958488 0.005741494730515 0.000000000000000
0.000185296267019 0.005899438477636 0.000000000000000
0.000184257728365 0.006229438580413 0.000000000000000
0.000083870078508 0.006393635937304 0.000000000000000
0.000177409157062 0.006557740558283 0.000000000000000
0.000162572860265 0.006921752704148 0.000000000000000
0.000204741053629 0.006882673142487 0.000000000000000
0.000181945434170 0.007243757219550 0.000000000000000
0.000091774899932 0.007422736745790 0.000000000000000
0.000205459125524 0.007619643600532 0.000000000000000
0.000199168489636 0.007975876397791 0.000000000000000
0.000086960668912 0.008150347998897 0.000000000000000
0.000215191553116 0.008349593611297 0.000000000000000
0.000218163801512 0.008735328982997 0.000000000000000
0.000106339397921 0.008928991009808 0.000000000000000
0.000220989861272 0.009119455929962 0.000000000000000
0.000229375018711 0.009516352179153 0.000000000000000
0.000124425524302 0.009692790022329 0.000000000000000
0.000231523264875 0.009927359034933 0.000000000000000
0.000247282740801 0.010351785902470 0.000000000000000
0.000138264304145 0.010504407755285 0.000000000000000
0.000272186289651 0.010775666826797 0.000000000000000
0.000264386362911 0.011211786372786 0.000000000000000
0.000141549554905 0.011446185875098 0.000000000000000
0.000265239189811 0.011664306837015 0.000000000000000
0.000267648571348 0.012127274471375 0.000000000000000
0.000132000819839 0.012352849246105 0.000000000000000
0.000277659179865 0.012605136926242 0.000000000000000
0.000145031582407 0.012834854663502 0.000000000000000
0.000144071256695 0.013320942576325 0.000000000000000
0.000299233867535 0.013584169880578 0.000000000000000
0.000150504888705 0.013844503895847 0.000000000000000
0.000303584406530 0.014108709172501 0.000000000000000
0.000306694191394 0.014637689567213 0.000000000000000
0.000168413663475 0.014877198467318 0.000000000000000
0.000327847877621 0.015171071871626 0.000000000000000
0.000329633098196 0.015730097563163 0.000000000000000
0.000156154512552 0.016030571287513 0.000000000000000
0.000329894370033 0.016310529529762 0.000000000000000
0.000342379528816 0.016904007968347 0.000000000000000
0.000169695860423 0.017199401226059 0.000000000000000
0.000349690075648 0.017507026147668 0.000000000000000
0.000360645403997 0.018130257524232 0.000000000000000
0.000169965915168 0.018447668661598 0.000000000000000
0.000367523424259 0.018774208945165 0.000000000000000
0.000382185339258 0.019430653287301 0.000000000000000
0.000196092360745 0.019752424825817 0.000000000000000
0.000399384657180 0.020108812140391 0.000000000000000
0.000406418630613 0.020804565167347 0.000000000000000
0.000209019551637 0.021146546002998 0.000000000000000
0.000429663618052 0.021528810249074 0.000000000000000
0.000461617607212 0.022272127002686 0.000000000000000
0.000461617607212 0.022272127002686 0.000000000000000
0.000457285453828 0.023009908369937 0.000000000000000
0.000227704904709 0.023423347847081 0.000000000000000
0.000450123922694 0.023808588886793 0.000000000000000
0.000464132623456 0.024600430556714 0.000000000000000
0.000218236635097 0.025026184074236 0.000000000000000
0.000471383383452 0.025426961161432 0.000000000000000
0.000474652912848 0.026273957973207 0.000000000000000
0.000221282224723 0.026687996822195 0.000000000000000
0.000499644324783 0.027142409246548 0.000000000000000
0.000515481025311 0.028034280347302 0.000000000000000
0.000270439569171 0.028458417058978 0.000000000000000
0.000530892562901 0.028952104037450 0.000000000000000
0.000556319665249 0.029886962924543 0.000000000000000
0.000299729706103 0.030310812511831 0.000000000000000
0.000586533031050 0.030862376971890 0.000000000000000
0.000612773761064 0.031830216520279 0.000000000000000
0.000344519337002 0.032384555931027 0.000000000000000
0.000603064230269 0.032837995955214 0.000000000000000
0.000606832646650 0.033878502961684 0.000000000000000
0.000305361977285 0.034404784148812 0.000000000000000
0.000616940563816 0.034942731490345 0.000000000000000
0.000312766802290 0.035470127968567 0.000000000000000
0.000316555522949 0.036577290655416 0.000000000000000
0.000639423587352 0.037127248950426 0.000000000000000
0.000311694871311 0.037701162652557 0.000000000000000
0.000650047689050 0.038260994133427 0.000000000000000
0.000671765009283 0.039417658305322 0.000000000000000
0.000334372557982 0.040002039173130 0.000000000000000
0.000665967040147 0.040576098402927 0.000000000000000
0.000700563308998 0.041784572810587 0.000000000000000
0.000333164575853 0.042373507108324 0.000000000000000
0.000705938175078 0.043004369264833 0.000000000000000
0.000664033022877 0.044239094503131 0.000000000000000
0.000393437542551 0.044613963654480 0.000000000000000
0.000781064664490 0.045519906100879 0.000000000000000
0.000754234292431 0.046752855174866 0.000000000000000
0.000367054337097 0.047419028995075 0.000000000000000
0.000749918053797 0.048081577882881 0.000000000000000
0.000746617482834 0.049384029840483 0.000000000000000
0.000367530721659 0.050027957493958 0.000000000000000
0.000771359473985 0.050712197340591 0.000000000000000
0.000760922134195 0.052056740005717 0.000000000000000
0.000360815932782 0.052728009227405 0.000000000000000
0.000773159077639 0.053410531237820 0.000000000000000
0.000361256976393 0.054092242322539 0.000000000000000
0.000354842975370 0.055476129937794 0.000000000000000
0.000776823777141 0.056158000588116 0.000000000000000
0.000376450085538 0.056804774105503 0.000000000000000
0.000807028172067 0.057550557228075 0.000000000000000
0.000790929610533 0.058953836675918 0.000000000000000
0.000387055138167 0.059615782796254 0.000000000000000
0.000815421489113 0.060341500815743 0.000000000000000
0.000820014663999 0.061763570525001 0.000000000000000
0.000405994850058 0.062484426866801 0.000000000000000
0.000806256924907 0.063175686689868 0.000000000000000
0.000775248536340 0.064558559548305 0.000000000000000
0.000358801170165 0.065253561319547 0.000000000000000
0.000735972060263 0.066078631326525 0.000000000000000
0.000829999561406 0.067485395232866 0.000000000000000
0.000398591218108 0.068189823830018 0.000000000000000
0.000814599450605 0.068909049532223 0.000000000000000
0.000884716346378 0.070294609193364 0.000000000000000
0.000461842347633 0.071200908764042 0.000000000000000
0.000814142208098 0.071694695828812 0.000000000000000
0.000805943320447 0.073173196888467 0.000000000000000
0.000365887443080 0.073964607834879 0.000000000000000
0.000782847122030 0.074567815603469 0.000000000000000
0.000352789576484 0.075395244919271 0.000000000000000
0.000336043600931 0.076763589583526 0.000000000000000
0.000789072084584 0.077453135736411 0.000000000000000
0.000366652199623 0.078160345980228 0.000000000000000
0.000798993588976 0.078881081577799 0.000000000000000
0.000833928876095 0.080307870861536 0.000000000000000
0.000418279422960 0.081027871488923 0.000000000000000
0.000839135617073 0.081756867853475 0.000000000000000
0.000825797294413 0.083198780911056 0.000000000000000
0.000404928418016 0.083927613605145 0.000000000000000
0.000829561952920 0.084636600796993 0.000000000000000
0.000828423355720 0.086098591562302 0.000000000000000
0.000400110851998 0.086813967473189 0.000000000000000
0.000828441158983 0.087548965303086 0.000000000000000
0.000852796890763 0.089009391133577 0.000000000000000
0.000419123770110 0.089758210287497 0.000000000000000
0.000855486893878 0.090497802882379 0.000000000000000
0.000856652968579 0.091997579489800 0.000000000000000
0.000417966075218 0.092738800455611 0.000000000000000
0.000847047660084 0.093481991561653 0.000000000000000
0.000860706708375 0.095105385494188 0.000000000000000
0.000334614474780 0.095773206586545 0.000000000000000
0.000876665042730 0.096468328946604 0.000000000000000
0.000444392869271 0.097345507756305 0.000000000000000
0.000454182061014 0.098887449740613 0.000000000000000
0.000914543880515 0.099679709000782 0.000000000000000
0.000457288783849 0.100467269294811 0.000000000000000
0.000922631360392 0.101273297376647 0.000000000000000
0.000943519332169 0.102899614542120 0.000000000000000
0.000469068493989 0.103701554138988 0.000000000000000
0.000953311921054 0.104540240842262 0.000000000000000
0.000947001264972 0.106207180439855 0.000000000000000
0.000436933383158 0.107042743208695 0.000000000000000
0.000968061029899 0.107911244165491 0.000000000000000
0.001042879611499 0.109674289566746 0.000000000000000
0.000611580435441 0.110421321653081 0.000000000000000
0.001141271299976 0.111401886967937 0.000000000000000
0.001059070678850 0.113140303735754 0.000000000000000
0.000581440432142 0.114315897213812 0.000000000000000
0.001048071962780 0.115019081469086 0.000000000000000
0.001039450989109 0.116859889420429 0.000000000000000
0.000516140966190 0.117859961114836 0.000000000000000
0.001072433895210 0.118743184528635 0.000000000000000
0.001105636829238 0.120667986709558 0.000000000000000
0.000553930887948 0.121623612845969 0.000000000000000
0.001106412164638 0.122610121507427 0.000000000000000
0.000542856769348 0.123535625736536 0.000000000000000
0.000562220884725 0.125539646856808 0.000000000000000
0.001146805438132 0.126548707257545 0.000000000000000
0.000574413431270 0.127536790652242 0.000000000000000
0.001156649446438 0.128545253353776 0.000000000000000
0.001156868366774 0.130550259106769 0.000000000000000
0.000570031728615 0.131563636581636 0.000000000000000
0.001143741947660 0.132543216340740 0.000000000000000
0.001128863938230 0.134518537981167 0.000000000000000
0.000557619439451 0.135508005744343 0.000000000000000
0.001109902578859 0.136458435718376 0.000000000000000
0.001077888407854 0.138356240429025 0.000000000000000
0.000500700857689 0.139356003048606 0.000000000000000
0.000999849833164 0.140170128658991 0.000000000000000
0.000917128943883 0.141838083586902 0.000000000000000
0.000438664309719 0.142708582776113 0.000000000000000
0.000829905645280 0.143386208534231 0.000000000000000
0.000709127228798 0.144722379588303 0.000000000000000
0.000308991704458 0.145406636654846 0.000000000000000
0.000555154954174 0.145829250711397 0.000000000000000
0.000356242618244 0.146621006960153 0.000000000000000
0.000123192290532 0.147024818439103 0.000000000000000
0.000136762393950 0.147048116772734 0.000000000000000
0.000003391691430 0.147277179855054 0.000000000000000
-0.000130476165101 0.147020812991134 0.000000000000000
-0.000435041586724 0.146545561189884 0.000000000000000
-0.000304537225774 0.146314486340728 0.000000000000000
-0.000804062299470 0.145465955607783 0.000000000000000
-0.001133290941937 0.143783208108523 0.000000000000000
-0.000721504425764 0.143069313707104 0.000000000000000
-0.001544270398304 0.141440171368520 0.000000000000000
-0.001992357462187 0.138259000783312 0.000000000000000
-0.001141022025158 0.137014335468485 0.000000000000000
-0.002417666397797 0.134658801280954 0.000000000000000
-0.002634687091858 0.129887460540922 0.000000000000000
-0.002648577578120 0.129904080382523 0.000000000000000
-0.002537299313527 0.125109462862677 0.000000000000000
-0.003328760099939 0.119015812326437 0.000000000000000
-0.001764231446885 0.116053284349436 0.000000000000000
-0.003758639182335 0.112608158185956 0.000000000000000
-0.004166759851713 0.105741329949709 0.000000000000000
-0.002043853783721 0.102064348779656 0.000000000000000
-0.004303867891181 0.098511379089450 0.000000000000000
-0.004506685820815 0.090739634506527 0.000000000000000
-0.002297066169141 0.086814858596825 0.000000000000000
-0.004680515104054 0.082704174843542 0.000000000000000
-0.004816325000950 0.074467536197319 0.000000000000000
-0.002601288163683 0.070637493616226 0.000000000000000
-0.005002030332331 0.066109283353763 0.000000000000000
-0.002653614486335 0.061804994124366 0.000000000000000
-0.002446364680772 0.053917342198935 0.000000000000000
-0.004963698555012 0.048633706505112 0.000000000000000
-0.002051313132932 0.044823305089645 0.000000000000000
-0.004931581987871 0.040038477701447 0.000000000000000
-0.005048237555478 0.031202301442767 0.000000000000000
-0.002888581676727 0.027685444473674 0.000000000000000
-0.005224880760639 0.021968753255812 0.000000000000000
-0.005012799814779 0.013743768130225 0.000000000000000
-0.002148360338827 0.008782413422575 0.000000000000000
-0.004289604306636 0.004253135344424 0.000000000000000
0.000297799750675 0.000063177244334 0.000000000000000
0.000304551857144 0.000329053738102 0.000000000000000
0.000375958162363 0.000509375103253 0.000000000000000
0.000375958162363 0.000509375103253 0.000000000000000
0.000352958371664 0.000811942116906 0.000000000000000
0.000374674866981 0.001064116202654 0.000000000000000
0.000374674866981 0.001064116202654 0.000000000000000
0.000390620205864 0.001354455423168 0.000000000000000
0.000087951897252 0.001645494879422 0.000000000000000
0.000369536794875 0.001593061515926 0.000000000000000
0.000369099888861 0.001913824289814 0.000000000000000
0.000310619980928 0.002004931592807 0.000000000000000
0.000396574832534 0.002179066079290 0.000000000000000
0.000396694949855 0.002448009323639 0.000000000000000
0.000312036781395 0.002590616010346 0.000000000000000
0.000398757075861 0.002734181106224 0.000000000000000
0.000391584366455 0.003002233002927 0.000000000000000
0.000315457312872 0.003124069827528 0.000000000000000
0.000401000932268 0.003309015006544 0.000000000000000
0.000286129322041 0.003560374090735 0.000000000000000
0.000286129322041 0.003560374090735 0.000000000000000
0.000279961631509 0.003886487470223 0.000000000000000
0.000426278474567 0.004171625012507 0.000000000000000
0.000426278474567 0.004171625012507 0.000000000000000
0.000436269303253 0.004481723293287 0.000000000000000
0.000439127010267 0.004788027182405 0.000000000000000
0.000439127010267 0.004788027182405 0.000000000000000
0.000449161041871 0.005098729440513 0.000000000000000
0.000463327052496 0.005416362814967 0.000000000000000
0.000463327052496 0.005416362814967 0.000000000000000
0.000459532537250 0.005719190920700 0.000000000000000
0.000361310923161 0.005969764652696 0.000000000000000
0.000440747115857 0.006067898499972 0.000000000000000
0.000470487796348 0.006394724490780 0.000000000000000
0.000366535228249 0.006584728259941 0.000000000000000
0.000419008738767 0.006648949253686 0.000000000000000
0.000204741053629 0.006882673142487 0.000000000000000
0.000370990773955 0.007133248138638 0.000000000000000
0.000429788644003 0.007482873152583 0.000000000000000
0.000443290433929 0.007777169718661 0.000000000000000
0.000443290433929 0.007777169718661 0.000000000000000
0.000491905431737 0.008184084602226 0.000000000000000
0.000523731206649 0.008559322792657 0.000000000000000
0.000523731206649 0.008559322792657 0.000000000000000
0.000563914088473 0.008912797488851 0.000000000000000
0.000550637547469 0.009318442600515 0.000000000000000
0.000550637547469 0.009318442600515 0.000000000000000
0.000589733304932 0.009711983029474 0.000000000000000
0.000590397639351 0.010065424462375 0.000000000000000
0.000590397639351 0.010065424462375 0.000000000000000
0.000583454376751 0.010548708515099 0.000000000000000
0.000637506052169 0.010979074170565 0.000000000000000
0.000637506052169 0.010979074170565 0.000000000000000
0.000676608304809 0.011455109414353 0.000000000000000
0.000546368936064 0.011715298649959 0.000000000000000
0.000657301788953 0.011865008497315 0.000000000000000
0.000647745456629 0.012373062292649 0.000000000000000
0.000591816446208 0.012443172446308 0.000000000000000
0.000714271670446 0.012847544329479 0.000000000000000
0.000742131176899 0.013306014561169 0.000000000000000
0.000590637686958 0.013583250620009 0.000000000000000
0.000739649692939 0.013846714824960 0.000000000000000
0.000772559785489 0.014371223184326 0.000000000000000
0.000772559785489 0.014371223184326 0.000000000000000
0.000836526770025 0.014926855585261 0.000000000000000
0.000810742018006 0.015415355166967 0.000000000000000
0.000810742018006 0.015415355166967 0.000000000000000
0.000787523150574 0.015992713974463 0.000000000000000
0.000799395311230 0.016619082212344 0.000000000000000
0.000799395311230 0.016619082212344 0.000000000000000
0.000864832163824 0.017202503920563 0.000000000000000
0.000896361162623 0.017796314643579 0.000000000000000
0.000896361162623 0.017796314643579 0.000000000000000
0.000877378887453 0.018443505274623 0.000000000000000
0.000950203492046 0.019111912555383 0.000000000000000
0.000950203492046 0.019111912555383 0.000000000000000
0.000989300532505 0.019755934740075 0.000000000000000
0.001006010611927 0.020447406432181 0.000000000000000
0.001006010611927 0.020447406432181 0.000000000000000
0.001014096083758 0.021146541344765 0.000000000000000
0.000830438503398 0.021443197210244 0.000000000000000
0.000996256369707 0.021941876713088 0.000000000000000
0.001102799856531 0.022541466809531 0.000000000000000
0.001102799856531 0.022541466809531 0.000000000000000
0.001097007898269 0.023433045693720 0.000000000000000
0.001223428045349 0.024192265379403 0.000000000000000
0.001223428045349 0.024192265379403 0.000000000000000
0.001134824249786 0.024958088514449 0.000000000000000
0.001109708160040 0.025855902389261 0.000000000000000
0.000879470324503 0.026126771460174 0.000000000000000
0.001195851306853 0.026725952490114 0.000000000000000
0.001221373892649 0.027602314111683 0.000000000000000
0.001221373892649 0.027602314111683 0.000000000000000
0.001329667167497 0.028475956171217 0.000000000000000
0.001366280276838 0.029356978488315 0.000000000000000
0.001366280276838 0.029356978488315 0.000000000000000
0.001400176067686 0.030366403073409 0.000000000000000
0.001546357328669 0.031373144099541 0.000000000000000
0.001546357328669 0.031373144099541 0.000000000000000
0.001603165601445 0.032325913330546 0.000000000000000
0.001313054641801 0.033018464704802 0.000000000000000
0.001522215710937 0.033315746699554 0.000000000000000
0.001502223505563 0.034408912593200 0.000000000000000
0.001218349902925 0.034903711530601 0.000000000000000
0.001539391834591 0.035471200996374 0.000000000000000
0.001608065369545 0.036574088297225 0.000000000000000
0.001285553933573 0.037081430629468 0.000000000000000
0.001630282065225 0.037653124277443 0.000000000000000
0.001604607888735 0.038857494200679 0.000000000000000
0.001392604729804 0.039142364886915 0.000000000000000
0.001740950531686 0.040001891072794 0.000000000000000
0.001683244158737 0.041108113308040 0.000000000000000
0.001683244158737 0.041108113308040 0.000000000000000
0.001654381626475 0.042382951807682 0.000000000000000
0.001438191986814 0.043533903482158 0.000000000000000
0.001438191986814 0.043533903482158 0.000000000000000
0.001464393738841 0.044981787709138 0.000000000000000
0.001844524631894 0.045968483426408 0.000000000000000
0.001844524631894 0.045968483426408 0.000000000000000
0.001776574250119 0.047472178212623 0.000000000000000
0.001933056552925 0.048715831900340 0.000000000000000
0.001933056552925 0.048715831900340 0.000000000000000
0.001906911511442 0.050025720330299 0.000000000000000
0.001493036664805 0.050729982945859 0.000000000000000
0.001883223444599 0.051383704856534 0.000000000000000
0.001836074201428 0.052711446426524 0.000000000000000
0.001432625886659 0.053310090677347 0.000000000000000
0.001910837906744 0.054097965665547 0.000000000000000
0.001934790722197 0.055439107792231 0.000000000000000
0.001458127896094 0.056344493373003 0.000000000000000
0.001882052098608 0.056892392574920 0.000000000000000
0.002021327681728 0.058236836777500 0.000000000000000
0.001583264003231 0.058910021067698 0.000000000000000
0.002027113212923 0.059605142568369 0.000000000000000
0.002038765803580 0.061072824367783 0.000000000000000
0.002038765803580 0.061072824367783 0.000000000000000
0.002083720669089 0.062477958207443 0.000000000000000
0.002105281844472 0.063865872956741 0.000000000000000
0.002105281844472 0.063865872956741 0.000000000000000
0.001776328070689 0.065032535849670 0.000000000000000
0.001458159316388 0.066412756909057 0.000000000000000
0.000829999561406 0.067485395232866 0.000000000000000
0.001818711012722 0.068396894399244 0.000000000000000
0.002029927573642 0.069710622620231 0.000000000000000
0.002029927573642 0.069710622620231 0.000000000000000
0.001911234896127 0.070945519775441 0.000000000000000
0.001650137856911 0.072256489694110 0.000000000000000
0.001893480565902 0.072547931711779 0.000000000000000
0.002025769491586 0.073969133472614 0.000000000000000
0.001545946852579 0.074871166414549 0.000000000000000
0.001893381961118 0.075301135718787 0.000000000000000
0.001826750142673 0.076811311444893 0.000000000000000
0.001555369358385 0.077129435257957 0.000000000000000
0.001978611437504 0.078230335100873 0.000000000000000
0.002053261937314 0.079599842723141 0.000000000000000
0.001625574321967 0.080263171568480 0.000000000000000
0.002067600111991 0.081027872223951 0.000000000000000
0.002084840166455 0.082489360274262 0.000000000000000
0.002084840166455 0.082489360274262 0.000000000000000
0.002118291860965 0.083891000965928 0.000000000000000
0.002016335993104 0.085362005378460 0.000000000000000
0.002016335993104 0.085362005378460 0.000000000000000
0.002128509918417 0.086852181524695 0.000000000000000
0.002115719997559 0.088265158718428 0.000000000000000
0.002115719997559 0.088265158718428 0.000000000000000
0.002070474888981 0.089731961872247 0.000000000000000
0.002073356886015 0.091243494563311 0.000000000000000
0.002073356886015 0.091243494563311 0.000000000000000
0.002136383809512 0.092775248605383 0.000000000000000
0.002112629641027 0.094060428618720 0.000000000000000
0.002112629641027 0.094060428618720 0.000000000000000
0.002124965574757 0.095761772305993 0.000000000000000
0.001737203672879 0.096209036966886 0.000000000000000
0.002147101668964 0.097527877601552 0.000000000000000
0.002285966746984 0.098850522680897 0.000000000000000
0.001790871782485 0.099672842601963 0.000000000000000
0.002273854575061 0.100476685588962 0.000000000000000
0.002302004574802 0.102050585002903 0.000000000000000
0.001867113041035 0.102814066682510 0.000000000000000
0.002371576678035 0.103717592063327 0.000000000000000
0.002394798445986 0.105311228850384 0.000000000000000
0.002394798445986 0.105311228850384 0.000000000000000
0.002294788965262 0.107039999880761 0.000000000000000
0.002419115802191 0.108798244688874 0.000000000000000
0.002419115802191 0.108798244688874 0.000000000000000
0.002553085642886 0.110744934272504 0.000000000000000
0.000651071201361 0.112573763476366 0.000000000000000
0.002596044559773 0.112292507525816 0.000000000000000
0.002548571567324 0.114299648972092 0.000000000000000
0.002190053231455 0.115043942701018 0.000000000000000
0.002725069326544 0.116055478157785 0.000000000000000
0.002582593464694 0.117731866644878 0.000000000000000
0.002034236005530 0.119080017061200 0.000000000000000
0.002556954774338 0.119768982606287 0.000000000000000
0.002799712224823 0.121599393947050 0.000000000000000
0.002194608926626 0.122536514779721 0.000000000000000
0.002841255469316 0.123519807287438 0.000000000000000
0.002850001026600 0.125573159483606 0.000000000000000
0.002291480058613 0.126543958629329 0.000000000000000
0.002866969176127 0.127543515298536 0.000000000000000
0.002904503377564 0.129537661887800 0.000000000000000
0.002289886627258 0.130600561171179 0.000000000000000
0.002880519650028 0.131578741968186 0.000000000000000
0.002847437072721 0.133551783254433 0.000000000000000
0.002847437072721 0.133551783254433 0.000000000000000
0.002800087504445 0.135499578349830 0.000000000000000
0.002719111815568 0.137442163882909 0.000000000000000
0.002719111815568 0.137442163882909 0.000000000000000
0.002589907313519 0.139269289396304 0.000000000000000
0.002358671387315 0.141138544407737 0.000000000000000
0.002358671387315 0.141138544407737 0.000000000000000
0.002255633968900 0.142736815949872 0.000000000000000
0.001906189725418 0.144137958191109 0.000000000000000
0.001906189725418 0.144137958191109 0.000000000000000
0.001571907000188 0.145426178686353 0.000000000000000
0.001156337003454 0.146401260067244 0.000000000000000
0.001156337003454 0.146401260067244 0.000000000000000
0.000635512735300 0.147020988428995 0.000000000000000
0.000267022942762 0.147592011251781 0.000000000000000
0.000069976475973 0.147274716277195 0.000000000000000
-0.000692278945471 0.147016535661942 0.000000000000000
-0.000930039230552 0.147319149404829 0.000000000000000
-0.001512745728048 0.146272714758299 0.000000000000000
-0.002347871983036 0.144900452364167 0.000000000000000
-0.002574260242961 0.145204688863980 0.000000000000000
-0.003371834731236 0.142955467445799 0.000000000000000
-0.004305961780518 0.140606983433634 0.000000000000000
-0.003676420487874 0.139472144274943 0.000000000000000
-0.005064756593494 0.136751441520571 0.000000000000000
-0.005497394630090 0.133437905499097 0.000000000000000
-0.005497394630090 0.133437905499097 0.000000000000000
-0.002648577578120 0.129904080382523 0.000000000000000
-0.006240499721029 0.126337535208502 0.000000000000000
-0.007581665896816 0.120661703420010 0.000000000000000
-0.009052716559077 0.115946779324994 0.000000000000000
-0.009801437943346 0.109460814154309 0.000000000000000
-0.009801437943346 0.109460814154309 0.000000000000000
-0.010458236377326 0.102222035891048 0.000000000000000
-0.008309256125021 0.098891712083704 0.000000000000000
-0.010975646057268 0.094502605602210 0.000000000000000
-0.011507355653416 0.086757784853194 0.000000000000000
-0.009446592174483 0.083125363263210 0.000000000000000
-0.011970111319988 0.078692170344851 0.000000000000000
-0.012579063738427 0.069998717087317 0.000000000000000
-0.011149720624909 0.067542011226567 0.000000000000000
-0.013512421839219 0.062452816753988 0.000000000000000
-0.011888858765187 0.054589369791590 0.000000000000000
-0.009185479600739 0.050346289598250 0.000000000000000
-0.011525120496727 0.045123936529478 0.000000000000000
-0.011800298877350 0.035378099829372 0.000000000000000
-0.010754330886344 0.034255732250746 0.000000000000000
-0.012605852697887 0.027170864678306 0.000000000000000
-0.013413235610017 0.018493508880625 0.000000000000000
-0.013413235610017 0.018493508880625 0.000000000000000
-0.010146629462155 0.010728720788893 0.000000000000000
-0.009101320818550 0.001797929715944 0.000000000000000
0.000410362515017 0.000139891077249 0.000000000000000
0.000406396064142 0.000251721703444 0.000000000000000
0.000381722995655 0.000515748878021 0.000000000000000
0.000535286022499 0.000659257088057 0.000000000000000
0.000535286022499 0.000659257088057 0.000000000000000
0.000315312840092 0.000861068856983 0.000000000000000
0.000311535957554 0.001153452848708 0.000000000000000
0.000428774298826 0.001322601952466 0.000000000000000
0.000411221190167 0.001626613947943 0.000000000000000
0.000411221190167 0.001626613947943 0.000000000000000
0.000533039552191 0.001790078013448 0.000000000000000
0.000310619980928 0.002004931592807 0.000000000000000
0.000317183633423 0.002327453249619 0.000000000000000
0.000317183633423 0.002327453249619 0.000000000000000
0.000312036781395 0.002590616010346 0.000000000000000
0.000320090216172 0.002866241117139 0.000000000000000
0.000320090216172 0.002866241117139 0.000000000000000
0.000604345210885 0.003085977528915 0.000000000000000
0.000437889317406 0.003276545465579 0.000000000000000
0.000410454051066 0.003618691557749 0.000000000000000
0.000608331550001 0.003503196318570 0.000000000000000
0.000571642403027 0.003861593351632 0.000000000000000
0.000332638369506 0.004032170859814 0.000000000000000
0.000337522192823 0.004327836211328 0.000000000000000
0.000337522192823 0.004327836211328 0.000000000000000
0.000351185073331 0.004636916955226 0.000000000000000
0.000352893616954 0.004937226778581 0.000000000000000
0.000352893616954 0.004937226778581 0.000000000000000
0.000361147009805 0.005246725276224 0.000000000000000
0.000365249321659 0.005588377746727 0.000000000000000
0.000365249321659 0.005588377746727 0.000000000000000
0.000584692252786 0.005887242227966 0.000000000000000
0.000616615900399 0.006251855680669 0.000000000000000
0.000354168939032 0.006172888650802 0.000000000000000
0.000704953853773 0.006518244271254 0.000000000000000
0.000631017630796 0.006879444233288 0.000000000000000
0.000588436866951 0.006848686544360 0.000000000000000
0.000531151367259 0.007221569167021 0.000000000000000