# vtk DataFile Version 2.0
B_vector
ASCII
DATASET STRUCTURED_POINTS
DIMENSIONS 257 257 1
ORIGIN 0.000000 0.000000 0.000000
SPACING 8.000000 8.000000 1
CELL_DATA 65536
VECTORS B float
0.000628413632512 0.001798744313419 0.000000000000000
-0.001116091385484 0.000873638316989 0.000000000000000
-0.000338222831488 -0.000358546152711 0.000000000000000
0.000084184110165 0.002122297883034 0.000000000000000
0.000530016608536 0.001265598461032 0.000000000000000
0.000648772343993 0.002120491117239 0.000000000000000
0.000065385363996 0.000783022493124 0.000000000000000
-0.000839527696371 0.001546781510115 0.000000000000000
0.000068563036621 0.001292122527957 0.000000000000000
-0.000734323635697 0.001985348761082 0.000000000000000
-0.000665850937366 0.000456057488918 0.000000000000000
-0.001069539226592 0.002019574865699 0.000000000000000
0.000018399208784 0.001647311262786 0.000000000000000
-0.000347547233105 0.003000279888511 0.000000000000000
-0.000132859684527 0.002002655528486 0.000000000000000
-0.000662863254547 0.003227665089071 0.000000000000000
0.000406117178500 0.002496079541743 0.000000000000000
-0.000738121569157 0.003528514876962 0.000000000000000
-0.000887874513865 0.002649211324751 0.000000000000000
-0.001224141567945 0.003795351833105 0.000000000000000
0.000227447599173 0.004219802096486 0.000000000000000
-0.000225296244025 0.004747116938233 0.000000000000000
-0.000199616886675 0.004101352766156 0.000000000000000
-0.000880764797330 0.004217950627208 0.000000000000000
-0.000330928713083 0.004626883193851 0.000000000000000
-0.001177108846605 0.004327363334596 0.000000000000000
-0.001214442774653 0.003822799772024 0.000000000000000
-0.001417336985469 0.004071133211255 0.000000000000000
-0.000355965457857 0.004854118451476 0.000000000000000
-0.000670565292239 0.005149213597178 0.000000000000000
-0.000301001593471 0.004822323098779 0.000000000000000
-0.000833902508020 0.005708359181881 0.000000000000000
-0.000266336835921 0.005329015664756 0.000000000000000
-0.000837349332869 0.005511629395187 0.000000000000000
-0.000799343921244 0.004946440458298 0.000000000000000
-0.000678302720189 0.005380926653743 0.000000000000000
-0.000373715534806 0.005834617651999 0.000000000000000
-0.000543400645256 0.006624121218920 0.000000000000000
0.000175893306732 0.005458487197757 0.000000000000000
-0.001011577434838 0.006318895146251 0.000000000000000
-0.000027449801564 0.006280705332756 0.000000000000000
-0.001238294877112 0.006422350183129 0.000000000000000
-0.000436567701399 0.005466630682349 0.000000000000000
-0.000407925806940 0.006889675743878 0.000000000000000
0.000359664671123 0.006168451160192 0.000000000000000
-0.000266220420599 0.007146192714572 0.000000000000000
0.000000609084964 0.006547393277287 0.000000000000000
-0.001147723756731 0.007619291543961 0.000000000000000
0.000150626525283 0.007193092256784 0.000000000000000
-0.000682014040649 0.006813064217567 0.000000000000000
-0.000531051307917 0.005818909034133 0.000000000000000
-0.001394754275680 0.007334735244513 0.000000000000000
0.000177713111043 0.007272299379110 0.000000000000000
-0.000155078247190 0.007427274249494 0.000000000000000
-0.000058892183006 0.006531929597259 0.000000000000000
-0.001284674741328 0.006541298702359 0.000000000000000
-0.000274145975709 0.007196800783277 0.000000000000000
-0.001019544899464 0.006614955142140 0.000000000000000
-0.000797400251031 0.006373250856996 0.000000000000000
-0.001077208667994 0.006441337056458 0.000000000000000
0.000272497534752 0.007140402682126 0.000000000000000
-0.000251890160143 0.007266643457115 0.000000000000000
-0.000000926665962 0.007284815423191 0.000000000000000
-0.000763876363635 0.007403463125229 0.000000000000000
-0.000109989196062 0.007472289726138 0.000000000000000
-0.000841628760099 0.006961965002120 0.000000000000000
-0.000882014632225 0.006404095329344 0.000000000000000
-0.000990108586848 0.007091417908669 0.000000000000000
-0.000115007162094 0.007513867691159 0.000000000000000
-0.000527137890458 0.008071664720774 0.000000000000000
-0.000103279948235 0.007499005645514 0.000000000000000
-0.000969739630818 0.007371946237981 0.000000000000000
-0.000452583655715 0.008250923827291 0.000000000000000
-0.001897342503071 0.007349859923124 0.000000000000000
-0.001247547566891 0.006897781975567 0.000000000000000
-0.001135595142841 0.007277850061655 0.000000000000000
-0.000015171244740 0.007435294799507 0.000000000000000
-0.000564098358154 0.008230742067099 0.000000000000000
-0.000439695082605 0.007971845567226 0.000000000000000
-0.001142397522926 0.008112459443510 0.000000000000000
-0.000331005081534 0.008417233824730 0.000000000000000
-0.001048753969371 0.008011701516807 0.000000000000000
-0.000963844358921 0.007385975681245 0.000000000000000
-0.001115872524679 0.007705863565207 0.000000000000000
-0.000239362940192 0.008233612403274 0.000000000000000
-0.000658113509417 0.008142909035087 0.000000000000000
-0.000322160311043 0.007442321628332 0.000000000000000
-0.001146661117673 0.007126558572054 0.000000000000000
-0.000533673912287 0.007623912766576 0.000000000000000
-0.001374292187393 0.007023481652141 0.000000000000000
-0.001124075613916 0.006499488838017 0.000000000000000
-0.001540777273476 0.006525631994009 0.000000000000000
-0.000387594103813 0.007156517356634 0.000000000000000
-0.000861741602421 0.007053180597723 0.000000000000000
-0.000514848157763 0.006977968849242 0.000000000000000
-0.001091375946999 0.007005190476775 0.000000000000000
-0.000494213774800 0.007319631986320 0.000000000000000
-0.001148812472820 0.006828384473920 0.000000000000000
-0.001049015671015 0.006199874915183 0.000000000000000
-0.001048942096531 0.006493849679828 0.000000000000000
-0.000616066157818 0.007001476362348 0.000000000000000
-0.000809064134955 0.007497073151171 0.000000000000000
-0.000029252842069 0.006626354530454 0.000000000000000
-0.001055179163814 0.006959738209844 0.000000000000000
-0.000229888595641 0.007208201102912 0.000000000000000
-0.001522695645690 0.006997881457210 0.000000000000000
-0.000696370378137 0.005958228372037 0.000000000000000
-0.000774928368628 0.006765056401491 0.000000000000000
0.000240676105022 0.006669211201370 0.000000000000000
-0.000488961115479 0.006948530673981 0.000000000000000
-0.000168107450008 0.006489823572338 0.000000000000000
-0.001099199056625 0.006835572421551 0.000000000000000
0.000032845884562 0.006887797266245 0.000000000000000
-0.000928958877921 0.005616605281830 0.000000000000000
-0.000894750468433 0.005061230622232 0.000000000000000
-0.001666627824306 0.005873691290617 0.000000000000000
-0.000258926302195 0.006262368522584 0.000000000000000
-0.000400229357183 0.006092088297009 0.000000000000000
-0.000197453424335 0.005418526008725 0.000000000000000
-0.001234844326973 0.004640912637115 0.000000000000000
-0.000683039426804 0.005811080336571 0.000000000000000
-0.001438758336008 0.004820183850825 0.000000000000000
-0.000892654061317 0.004849658347666 0.000000000000000
-0.001134427264333 0.004451937042177 0.000000000000000
0.000131901353598 0.005183294415474 0.000000000000000
-0.000539634376764 0.005285158753395 0.000000000000000
-0.000182553194463 0.005412505008280 0.000000000000000
-0.000809350050986 0.005296058021486 0.000000000000000
-0.000145699828863 0.005657785572112 0.000000000000000
-0.000804902985692 0.004580462351441 0.000000000000000
-0.000536695122719 0.004368677735329 0.000000000000000
-0.000861128792167 0.004907680675387 0.000000000000000
-0.000001181848347 0.005105505697429 0.000000000000000
-0.000420736148953 0.005684066563845 0.000000000000000
0.000150156207383 0.005001798272133 0.000000000000000
-0.000750821083784 0.004755719564855 0.000000000000000
-0.000171737745404 0.005840387195349 0.000000000000000
-0.001729359850287 0.004233579151332 0.000000000000000
-0.000706382095814 0.003800699487329 0.000000000000000
-0.000894699245691 0.003891857340932 0.000000000000000
0.000219465233386 0.003864125348628 0.000000000000000
-0.000481738708913 0.004177126102149 0.000000000000000
-0.000247835181653 0.003832111135125 0.000000000000000
-0.000720335170627 0.003651893697679 0.000000000000000
-0.000091807916760 0.004152242094278 0.000000000000000
-0.000940674915910 0.003315543755889 0.000000000000000
-0.000646047294140 0.003119187429547 0.000000000000000
-0.000838951207697 0.002987008541822 0.000000000000000
-0.000040691345930 0.003484326414764 0.000000000000000
-0.000436557456851 0.003335000947118 0.000000000000000
-0.000078641809523 0.002604928798974 0.000000000000000
-0.000814038328826 0.002114195376635 0.000000000000000
-0.000287596136332 0.002784833312035 0.000000000000000
-0.001167875714600 0.002160370349884 0.000000000000000
-0.000683736987412 0.001944702118635 0.000000000000000
-0.001153927296400 0.001526005566120 0.000000000000000
-0.000018222257495 0.002293784171343 0.000000000000000
-0.000855997204781 0.002163548022509 0.000000000000000
-0.000448899343610 0.002311404794455 0.000000000000000
-0.000991417095065 0.002162558957934 0.000000000000000
-0.000248396769166 0.002562338486314 0.000000000000000
-0.000870415009558 0.002050662413239 0.000000000000000
-0.000532884150743 0.001438280567527 0.000000000000000
-0.001174786128104 0.001652322709560 0.000000000000000
-0.000479788519442 0.001829603686929 0.000000000000000
-0.000774299725890 0.002571146935225 0.000000000000000
-0.000142768956721 0.001802108250558 0.000000000000000
-0.001199618913233 0.002030216157436 0.000000000000000
-0.000339355319738 0.002649739384651 0.000000000000000
-0.001517134718597 0.002363015897572 0.000000000000000
-0.000663987360895 0.001424904912710 0.000000000000000
-0.000856043770909 0.001896951347589 0.000000000000000
-0.000027382746339 0.001743937842548 0.000000000000000
-0.000438883900642 0.002145407721400 0.000000000000000
-0.000199176371098 0.001462988555431 0.000000000000000
-0.001038600690663 0.001969965174794 0.000000000000000
-0.000171464867890 0.002172839827836 0.000000000000000
-0.000744685530663 0.000912897288799 0.000000000000000
-0.000633794814348 0.000533437356353 0.000000000000000
-0.001471275463700 0.001220520585775 0.000000000000000
-0.000208649784327 0.001239299774170 0.000000000000000
-0.000202164053917 0.001501224935055 0.000000000000000
-0.000143783167005 0.000566475093365 0.000000000000000
-0.001212797127664 0.000390401110053 0.000000000000000
-0.000447388738394 0.001472814008594 0.000000000000000
-0.000996693037450 0.000737819820642 0.000000000000000
-0.000463351607323 0.000669104978442 0.000000000000000
-0.000921195372939 0.000660020858049 0.000000000000000
0.000077995471656 0.000765349715948 0.000000000000000
-0.000467200763524 0.001370839774609 0.000000000000000
-0.000228762626648 0.001183900982141 0.000000000000000
-0.000623824074864 0.001582995057106 0.000000000000000
-0.000081839971244 0.001580161042511 0.000000000000000
-0.000761168077588 0.001049926504493 0.000000000000000
-0.000455308705568 0.000601576641202 0.000000000000000
-0.000977702438831 0.001268137246370 0.000000000000000
-0.000161745585501 0.001393375918269 0.000000000000000
-0.000546759925783 0.002119213342667 0.000000000000000
-0.000089548528194 0.001279670745134 0.000000000000000
-0.000678014010191 0.001161051914096 0.000000000000000
-0.000175846740603 0.002249135635793 0.000000000000000
-0.001452771946788 0.000950794667006 0.000000000000000
-0.000453140586615 0.000633629038930 0.000000000000000
-0.000626503489912 0.000894054770470 0.000000000000000
0.000326523557305 0.000645730644464 0.000000000000000
-0.000223578885198 0.001203501597047 0.000000000000000
-0.000038696452975 0.000968318432570 0.000000000000000
-0.000801086425781 0.001122739166021 0.000000000000000
0.000218953937292 0.001600478775799 0.000000000000000
-0.000554725527763 0.001106712967157 0.000000000000000
-0.000348188914359 0.000796662643552 0.000000000000000
-0.000671895220876 0.000833937898278 0.000000000000000
0.000047542154789 0.001185432076454 0.000000000000000
-0.000157997943461 0.000993845984340 0.000000000000000
-0.000044360756874 0.000225795432925 0.000000000000000
-0.000816927291453 -0.000100040808320 0.000000000000000
-0.000260746106505 0.000641578808427 0.000000000000000
-0.000981371849775 0.000099254772067 0.000000000000000
-0.000746247358620 0.000155754387379 0.000000000000000
-0.001056686043739 -0.000121667981148 0.000000000000000
-0.000215510837734 0.000525854527950 0.000000000000000
-0.000751806423068 0.000821037217975 0.000000000000000
-0.000439237803221 0.000550424680114 0.000000000000000
-0.000998237170279 0.000759690999985 0.000000000000000
-0.000408711843193 0.000875784084201 0.000000000000000
-0.000938739627600 0.000960428267717 0.000000000000000
-0.000626566819847 0.000129207968712 0.000000000000000
-0.001356905326247 0.000548575073481 0.000000000000000
-0.000476998277009 0.000607261434197 0.000000000000000
-0.000708552077413 0.001177085563540 0.000000000000000
-0.000162206590176 0.000462524592876 0.000000000000000
-0.001172146759927 0.000720785930753 0.000000000000000
-0.000050712376833 0.001225681975484 0.000000000000000
-0.001026331447065 0.001073522493243 0.000000000000000
-0.000488243997097 0.000191479921341 0.000000000000000
-0.000550913624465 0.000661173835397 0.000000000000000
-0.000080285593867 0.000710465013981 0.000000000000000
-0.000510529614985 0.001068344339728 0.000000000000000
-0.000147812068462 0.000112796202302 0.000000000000000
-0.000767705962062 0.000779047608376 0.000000000000000
0.000058809295297 0.000722767785192 0.000000000000000
-0.000673518516123 0.000728726387024 0.000000000000000
-0.000370057299733 0.000040717422962 0.000000000000000
-0.000111450441182 0.000645646825433 0.000000000000000
-0.000115212053061 0.000753222033381 0.000000000000000
-0.001051103696227 0.001310069113970 0.000000000000000
-0.000818829983473 0.000300420448184 0.000000000000000
-0.001886509358883 0.000571396201849 0.000000000000000
-0.000061280094087 0.000480027869344 0.000000000000000
-0.001539494842291 0.001148939132690 0.000000000000000
-0.000592700205743 -0.000409640371799 0.000000000000000
-0.001612703315914 0.000755285844207 0.000000000000000
-0.000482985749841 0.000365763902664 0.000000000000000
0.000754524022341 0.001333195716143 0.000000000000000
-0.001001754775643 -0.000702260062099 0.000000000000000
-0.000779323279858 0.000097407028079 0.000000000000000
-0.002140251919627 -0.001105394214392 0.000000000000000
0.001342089846730 -0.000281764194369 0.000000000000000
-0.000226929783821 0.002257771790028 0.000000000000000
-0.000312531366944 0.001432867720723 0.000000000000000
-0.001729425042868 0.002300132066011 0.000000000000000
0.000828005373478 0.000281693413854 0.000000000000000
-0.001659680157900 0.001120300963521 0.000000000000000
-0.000599358230829 0.001253703609109 0.000000000000000
-0.001414110884070 0.001275528222322 0.000000000000000
0.000194506719708 0.001015352085233 0.000000000000000
-0.001492335461080 0.002761608920991 0.000000000000000
-0.000683870166540 0.002614572644234 0.000000000000000
-0.001377939246595 0.002211274579167 0.000000000000000
0.000437870621681 0.001853594556451 0.000000000000000
-0.001389382407069 0.002983175218105 0.000000000000000
-0.000250103883445 0.002808138728142 0.000000000000000
-0.001087661832571 0.002830167300999 0.000000000000000
0.000249959528446 0.001761538907886 0.000000000000000
-0.001170717179775 0.003766786307096 0.000000000000000
-0.000563017092645 0.003844251856208 0.000000000000000
-0.001509853638709 0.003538759425282 0.000000000000000
0.000325545668602 0.003258543089032 0.000000000000000
-0.001506226137280 0.004420030862093 0.000000000000000
-0.000744864344597 0.004557330161333 0.000000000000000
-0.001603608019650 0.004649407230318 0.000000000000000
0.000142604112625 0.003694387152791 0.000000000000000
-0.001277688890696 0.005349216051400 0.000000000000000
-0.000638371333480 0.005246693268418 0.000000000000000
-0.001712474972010 0.004836044274271 0.000000000000000
0.000195166096091 0.004087787121534 0.000000000000000
-0.001384003087878 0.005565028637648 0.000000000000000
-0.000615390948951 0.005585435777903 0.000000000000000
-0.001607442274690 0.005768209695816 0.000000000000000
0.000195546075702 0.004449561238289 0.000000000000000
-0.001195423305035 0.006066823378205 0.000000000000000
-0.000451245345175 0.005866894498467 0.000000000000000
-0.001596244052052 0.005355200730264 0.000000000000000
0.000394653528929 0.004882900044322 0.000000000000000
-0.001356335356832 0.006091486662626 0.000000000000000
-0.000543261878192 0.006319032981992 0.000000000000000
-0.001318966969848 0.006357744336128 0.000000000000000
0.000062679871917 0.005363876000047 0.000000000000000
-0.001149929128587 0.006753122434020 0.000000000000000
-0.000449084676802 0.006453923881054 0.000000000000000
-0.001485642045736 0.005874715745449 0.000000000000000
0.000241633504629 0.005397789180279 0.000000000000000
-0.001282878220081 0.006993116810918 0.000000000000000
-0.000612256117165 0.007140114903450 0.000000000000000
-0.001192685216665 0.007031131535769 0.000000000000000
0.000299779698253 0.005755694583058 0.000000000000000
-0.001078585162759 0.007041372358799 0.000000000000000
-0.000296388752759 0.006990389898419 0.000000000000000
-0.001406943425536 0.006370626389980 0.000000000000000
0.000423271209002 0.005962952971458 0.000000000000000
-0.001284044235945 0.007285741157830 0.000000000000000
-0.000371191650629 0.006856376305223 0.000000000000000
-0.001282265409827 0.006945300847292 0.000000000000000
0.000224731862545 0.005919670686126 0.000000000000000
-0.001142092049122 0.007285574451089 0.000000000000000
-0.000466132536530 0.006847674027085 0.000000000000000
-0.001539238728583 0.006460812874138 0.000000000000000
0.000195462256670 0.005719060078263 0.000000000000000
-0.001349517144263 0.007209457457066 0.000000000000000
-0.000651144422591 0.006955457851291 0.000000000000000
-0.001501800492406 0.006979145109653 0.000000000000000
-0.000109400600195 0.005837464705110 0.000000000000000
-0.001314323395491 0.007288847118616 0.000000000000000
-0.000708473846316 0.007193222641945 0.000000000000000
-0.001715483143926 0.006743174046278 0.000000000000000
0.000115448608994 0.006366951391101 0.000000000000000
-0.001458357088268 0.007452557794750 0.000000000000000
-0.000736779533327 0.007535373792052 0.000000000000000
-0.001562672667205 0.007583974860609 0.000000000000000
-0.000429997220635 0.006477475166321 0.000000000000000
-0.001597302034497 0.007873380556703 0.000000000000000
-0.001045320183039 0.007322441786528 0.000000000000000
-0.001974968239665 0.006853418424726 0.000000000000000
-0.000134011730552 0.006448742002249 0.000000000000000
-0.001486850902438 0.008254955522716 0.000000000000000
-0.000841193832457 0.008095227181911 0.000000000000000
-0.001459846273065 0.008010422810912 0.000000000000000
-0.000011680647731 0.007047967985272 0.000000000000000
-0.001412257552147 0.008280741050839 0.000000000000000
-0.000647645443678 0.007738819345832 0.000000000000000
-0.001767332665622 0.007047072052956 0.000000000000000
0.000030271708965 0.006627503782511 0.000000000000000
-0.001636455766857 0.007824372500181 0.000000000000000
-0.000965179875493 0.007308067753911 0.000000000000000
-0.001872300170362 0.007318792864680 0.000000000000000
-0.000259619206190 0.006574643775821 0.000000000000000
-0.001621635630727 0.007793043740094 0.000000000000000
-0.000817933119833 0.007324868813157 0.000000000000000
-0.002001180313528 0.006738042458892 0.000000000000000
-0.000211371108890 0.005980301648378 0.000000000000000
-0.001694797538221 0.007463689893484 0.000000000000000
-0.001002899371088 0.007122144103050 0.000000000000000
-0.001993488520384 0.007277002558112 0.000000000000000
-0.000126101076603 0.005948085337877 0.000000000000000
-0.001604163087904 0.007286489009857 0.000000000000000
-0.000937066040933 0.006982427090406 0.000000000000000
-0.001953521743417 0.006528831087053 0.000000000000000
0.000171106308699 0.005803832784295 0.000000000000000
-0.001661108806729 0.006869175471365 0.000000000000000
-0.001005237922072 0.006669124588370 0.000000000000000
-0.001810681074858 0.006809489801526 0.000000000000000
-0.000396348536015 0.005700645968318 0.000000000000000
-0.001729638315737 0.006968209519982 0.000000000000000
-0.000895160250366 0.006521621719003 0.000000000000000
-0.001897972077131 0.006000230088830 0.000000000000000
-0.000183649361134 0.005251877009869 0.000000000000000
-0.001727967523038 0.006842114962637 0.000000000000000
-0.000979014672339 0.006542775779963 0.000000000000000
-0.001605683937669 0.006482496857643 0.000000000000000
-0.000133378431201 0.004822922870517 0.000000000000000
-0.001749110408127 0.006128475070000 0.000000000000000
-0.001116566359997 0.005998421460390 0.000000000000000
-0.002324992790818 0.005640726536512 0.000000000000000
0.000016387552023 0.004884734749794 0.000000000000000
-0.001937390305102 0.005999006330967 0.000000000000000
-0.000886451452971 0.005434002727270 0.000000000000000
-0.001878419891000 0.005588515661657 0.000000000000000
-0.000165665522218 0.004644643515348 0.000000000000000
-0.001692142337561 0.005920721217990 0.000000000000000
-0.000861109234393 0.005309319123626 0.000000000000000
-0.002061087638140 0.004944715648890 0.000000000000000
-0.000110356137156 0.004179337993264 0.000000000000000
-0.001593485474586 0.005674535408616 0.000000000000000
-0.000683834776282 0.005348796024919 0.000000000000000
-0.001697933301330 0.005495650693774 0.000000000000000
-0.000073324888945 0.004290195181966 0.000000000000000
-0.001403701491654 0.005390718579292 0.000000000000000
-0.000674502924085 0.005089793354273 0.000000000000000
-0.001807566732168 0.004724200814962 0.000000000000000
0.000292347744107 0.004111602902412 0.000000000000000
-0.001364381052554 0.004897877573967 0.000000000000000
-0.000578636303544 0.004895841702819 0.000000000000000
-0.001456224359572 0.005159230902791 0.000000000000000
-0.000253373757005 0.003645423799753 0.000000000000000
-0.001421116292477 0.004761763848364 0.000000000000000
-0.000739455223083 0.003934677690268 0.000000000000000
-0.001830436289310 0.003546515479684 0.000000000000000
0.000173237174749 0.002945261076093 0.000000000000000
-0.001253684051335 0.004470366984606 0.000000000000000
-0.000446579419076 0.004001168534160 0.000000000000000
-0.001417536288500 0.004055668599904 0.000000000000000
0.000244289636612 0.002913538366556 0.000000000000000
-0.001386238262057 0.004123257473111 0.000000000000000
-0.000382361002266 0.003541754558682 0.000000000000000
-0.001705572009087 0.002926085144281 0.000000000000000
0.000309927389026 0.002597426995635 0.000000000000000
-0.001566958613694 0.003564790822566 0.000000000000000
-0.000659906305373 0.002976816147566 0.000000000000000
-0.001806714572012 0.002982345409691 0.000000000000000
0.000044064596295 0.002120854333043 0.000000000000000
-0.001449888572097 0.003462014719844 0.000000000000000
-0.000476028770208 0.002832287922502 0.000000000000000
-0.001945495605469 0.002227636054158 0.000000000000000
-0.000255856662989 0.001542070880532 0.000000000000000
-0.001840624958277 0.003070303238928 0.000000000000000
-0.000925927422941 0.002628350630403 0.000000000000000
-0.002144971862435 0.002832593396306 0.000000000000000
-0.000098973512650 0.001501819118857 0.000000000000000
-0.001701536588371 0.002839193679392 0.000000000000000
-0.000857863575220 0.002365991473198 0.000000000000000
-0.002059061080217 0.001925591379404 0.000000000000000
0.000148814171553 0.001231916248798 0.000000000000000
-0.001710324548185 0.002430277876556 0.000000000000000
-0.000729965046048 0.002383066341281 0.000000000000000
-0.001801239326596 0.002594790421426 0.000000000000000
-0.000224787741899 0.001347526907921 0.000000000000000
-0.001679714769125 0.002768225967884 0.000000000000000
-0.000774359330535 0.002265272662044 0.000000000000000
-0.002014623954892 0.001733914017677 0.000000000000000
-0.000042889267206 0.001103179529309 0.000000000000000
-0.001705324277282 0.002540228888392 0.000000000000000
-0.000643717125058 0.002530695870519 0.000000000000000
-0.001597095280886 0.002407621592283 0.000000000000000
0.000079672783613 0.000902831554413 0.000000000000000
-0.001629352569580 0.002193383872509 0.000000000000000
-0.000790143385530 0.002064609900117 0.000000000000000
-0.002154111862183 0.001530747860670 0.000000000000000
0.000208273530006 0.000851567834616 0.000000000000000
-0.001680254004896 0.002071897499263 0.000000000000000
-0.000370398163795 0.001858186908066 0.000000000000000
-0.001499846577644 0.001880965195596 0.000000000000000
0.000222524628043 0.000947102904320 0.000000000000000
-0.001420174725354 0.002291530370712 0.000000000000000
-0.000561639666557 0.001704892143607 0.000000000000000
-0.001745316199958 0.001258114352822 0.000000000000000
0.000200567767024 0.000687519088387 0.000000000000000
-0.001207938417792 0.001954142004251 0.000000000000000
-0.000250429846346 0.001906661316752 0.000000000000000
-0.001385049894452 0.001907325349748 0.000000000000000
0.000107474625111 0.000661065801978 0.000000000000000
-0.001213570125401 0.001965540461242 0.000000000000000
-0.000493661500514 0.001534728333354 0.000000000000000
-0.001725224778056 0.001142106950283 0.000000000000000
0.000197220593691 0.000520749017596 0.000000000000000
-0.001287739723921 0.001566932536662 0.000000000000000
-0.000381680205464 0.001674413681030 0.000000000000000
-0.001394947059453 0.001958299428225 0.000000000000000
0.000071553513408 0.000404823571444 0.000000000000000
-0.001181706786156 0.001671419478953 0.000000000000000
-0.000410499982536 0.000934192910790 0.000000000000000
-0.001492019742727 0.000582583248615 0.000000000000000
0.000458775088191 -0.000169804319739 0.000000000000000
-0.001068970188498 0.001500735990703 0.000000000000000
-0.000249966979027 0.001392023637891 0.000000000000000
-0.001153707504272 0.001453464850783 0.000000000000000
0.000440387055278 0.000128127634525 0.000000000000000
-0.001183517277241 0.001599675975740 0.000000000000000
-0.000366012565792 0.001291040331125 0.000000000000000
-0.001583109609783 0.000774925574660 0.000000000000000
0.000439917668700 0.000174054875970 0.000000000000000
-0.001430170610547 0.001265238970518 0.000000000000000
-0.000387888401747 0.001026982441545 0.000000000000000
-0.001633448526263 0.001055514439940 0.000000000000000
0.000285388901830 0.000062517821789 0.000000000000000
-0.001333193853498 0.001494188793004 0.000000000000000
-0.000455947592854 0.001033762469888 0.000000000000000
-0.001713562756777 0.000475743785501 0.000000000000000
0.000077022239566 -0.000303568318486 0.000000000000000
-0.001671575941145 0.001051049679518 0.000000000000000
-0.000812515616417 0.000835107639432 0.000000000000000
-0.001989206299186 0.001019287854433 0.000000000000000
0.000002551823854 -0.000240607187152 0.000000000000000
-0.001582324504852 0.001248048618436 0.000000000000000
-0.000814803875983 0.000982852652669 0.000000000000000
-0.001902307383716 0.000411620363593 0.000000000000000
0.000213963910937 -0.000019688159227 0.000000000000000
-0.001661101356149 0.001234680414200 0.000000000000000
-0.000632455572486 0.001320211216807 0.000000000000000
-0.001678047701716 0.001499391160905 0.000000000000000
0.000105679035187 0.000110970810056 0.000000000000000
-0.001442156732082 0.001434179022908 0.000000000000000
-0.000693188980222 0.000998158007860 0.000000000000000
-0.001846850849688 0.000402638688684 0.000000000000000
0.000185705721378 0.000111730769277 0.000000000000000
-0.001586746424437 0.001188190653920 0.000000000000000
-0.000414998270571 0.001215534284711 0.000000000000000
-0.001430226489902 0.001350710168481 0.000000000000000
0.000496421009302 -0.000113526359200 0.000000000000000
-0.001030477695167 0.001288188621402 0.000000000000000
-0.000280445441604 0.000816024839878 0.000000000000000
-0.001777799800038 0.000201763585210 0.000000000000000
-0.000170676037669 -0.000587075948715 0.000000000000000
-0.001930295489728 0.000993844121695 0.000000000000000
-0.001212010160089 0.000782156363130 0.000000000000000
-0.001988422125578 0.001349544152617 0.000000000000000
0.000384550541639 0.000002142041922 0.000000000000000
-0.000790679827332 0.001714534126222 0.000000000000000
-0.000563055276871 0.001467026770115 0.000000000000000
-0.001722971908748 0.001777433790267 0.000000000000000
0.001798763871193 0.000277485698462 0.000000000000000
-0.001174628734589 0.001139633357525 0.000000000000000
0.000591527670622 0.001021416857839 0.000000000000000
0.000322045758367 0.000229859724641 0.000000000000000
0.000931018032134 0.002504851669073 0.000000000000000
0.001038257032633 0.000540047883987 0.000000000000000
-0.000981800258160 0.003002950921655 0.000000000000000
0.000413396395743 0.001126145943999 0.000000000000000
-0.000798393040895 0.001376636326313 0.000000000000000
0.000067230314016 0.000207034870982 0.000000000000000
-0.000870469957590 0.003516581840813 0.000000000000000
-0.000157747417688 0.000870298594236 0.000000000000000
-0.000436626374722 0.002103930339217 0.000000000000000
0.000078875571489 0.000762939453125 0.000000000000000
-0.001390263438225 0.004016683436930 0.000000000000000
-0.000354122370481 0.001591215841472 0.000000000000000
-0.000431422144175 0.002859007567167 0.000000000000000
-0.000109991058707 0.001520825549960 0.000000000000000
-0.001278392970562 0.004626916721463 0.000000000000000
-0.000401195138693 0.001818165183067 0.000000000000000
-0.000582510605454 0.003023294731975 0.000000000000000
-0.000048433430493 0.001783189363778 0.000000000000000
-0.001446708105505 0.005043248645961 0.000000000000000
-0.000472055748105 0.002766967751086 0.000000000000000
-0.000277008861303 0.003934101201594 0.000000000000000
0.000084088183939 0.002819637767971 0.000000000000000
-0.001415230333805 0.006301746703684 0.000000000000000
-0.000500241294503 0.003415919840336 0.000000000000000
-0.000574771314859 0.004458436742425 0.000000000000000
0.000092388130724 0.003171451389790 0.000000000000000
-0.001627735793591 0.006315848790109 0.000000000000000
-0.000443086028099 0.003922650590539 0.000000000000000
-0.000299751758575 0.004864947870374 0.000000000000000
0.000318930484354 0.003693594597280 0.000000000000000