# vtk DataFile Version 2.0
B_vector
ASCII
DATASET STRUCTURED_POINTS
DIMENSIONS 257 257 1
ORIGIN 0.000000 0.000000 0.000000
SPACING 8.000000 8.000000 1
CELL_DATA 65536
VECTORS B float
0.000851092860103 0.001560545526445 0.000000000000000
-0.000934083014727 0.001048946753144 0.000000000000000
-0.000096155330539 -0.000507490709424 0.000000000000000
0.000226888805628 0.001974090933800 0.000000000000000
0.000664474442601 0.001517337746918 0.000000000000000
0.000841401517391 0.002605483867228 0.000000000000000
0.000193110667169 0.001159973442554 0.000000000000000
-0.000880999490619 0.002165998332202 0.000000000000000
0.000196231529117 0.001933547668159 0.000000000000000
-0.000444427132607 0.002934530377388 0.000000000000000
-0.000601118430495 0.001547015272081 0.000000000000000
-0.001007875427604 0.003295317292213 0.000000000000000
-0.000257402658463 0.002762181684375 0.000000000000000
-0.000472631305456 0.004288664087653 0.000000000000000
-0.000136281363666 0.003112368285656 0.000000000000000
-0.000910697504878 0.004363842308521 0.000000000000000
0.000248982571065 0.003818326629698 0.000000000000000
-0.000593729317188 0.004947523586452 0.000000000000000
-0.000578748062253 0.003786469809711 0.000000000000000
-0.001088620163500 0.005193808116019 0.000000000000000
-0.000044713728130 0.005020898766816 0.000000000000000
-0.000451279804111 0.005821552127600 0.000000000000000
-0.000361301004887 0.004740839824080 0.000000000000000
-0.001435653306544 0.005160439759493 0.000000000000000
-0.000333851203322 0.005494663491845 0.000000000000000
-0.000891823321581 0.005720584653318 0.000000000000000
-0.000995909795165 0.004833946004510 0.000000000000000
-0.001486979424953 0.006090949289501 0.000000000000000
-0.000802109949291 0.006214144639671 0.000000000000000
-0.000769743695855 0.007085974328220 0.000000000000000
-0.000329751521349 0.005848342552781 0.000000000000000
-0.001284051686525 0.007421620190144 0.000000000000000
-0.000270088203251 0.006368089467287 0.000000000000000
-0.000584783032537 0.007264156825840 0.000000000000000
-0.000546006485820 0.005758731625974 0.000000000000000
-0.001133078709245 0.007519334554672 0.000000000000000
-0.000666926614940 0.007114831358194 0.000000000000000
-0.000797625631094 0.007983905263245 0.000000000000000
-0.000224195420742 0.006363818421960 0.000000000000000
-0.001602828502655 0.007272278890014 0.000000000000000
-0.000071819871664 0.006975227966905 0.000000000000000
-0.000806979835033 0.007168056443334 0.000000000000000
-0.000452825799584 0.005705721676350 0.000000000000000
-0.000627288594842 0.007394276559353 0.000000000000000
-0.000653664581478 0.006479424424469 0.000000000000000
-0.000843333080411 0.007564792409539 0.000000000000000
-0.000378090888262 0.006179748103023 0.000000000000000
-0.001273734495044 0.007390446029603 0.000000000000000
-0.000042239204049 0.006474122405052 0.000000000000000
-0.000411231070757 0.007293776609004 0.000000000000000
-0.000198839232326 0.005695492960513 0.000000000000000
-0.000708327628672 0.007948875427246 0.000000000000000
-0.000171395950019 0.006919385865331 0.000000000000000
-0.000415418297052 0.007878322154284 0.000000000000000
-0.000343181192875 0.005563410930336 0.000000000000000
-0.001381527632475 0.006409862078726 0.000000000000000
-0.000235014595091 0.006010041572154 0.000000000000000
-0.000764452852309 0.006308598443866 0.000000000000000
-0.000766761600971 0.004953165538609 0.000000000000000
-0.001172008924186 0.006508339196444 0.000000000000000
-0.000525074079633 0.006097778677940 0.000000000000000
-0.000657369382679 0.006968922913074 0.000000000000000
-0.000524765811861 0.005122202448547 0.000000000000000
-0.001252172514796 0.005849299021065 0.000000000000000
-0.000592187047005 0.004862767644227 0.000000000000000
-0.001105767674744 0.005278023891151 0.000000000000000
-0.000921665690839 0.002958952449262 0.000000000000000
-0.001984903588891 0.004815542139113 0.000000000000000
-0.000974801369011 0.004371467977762 0.000000000000000
-0.001210886985064 0.004951151087880 0.000000000000000
-0.000828170217574 0.002816781401634 0.000000000000000
-0.001646919175982 0.003671200945973 0.000000000000000
-0.000543307512999 0.002883265726268 0.000000000000000
-0.001608069054782 0.002113383263350 0.000000000000000
-0.001276857219636 0.001155354082584 0.000000000000000
-0.002174204215407 0.001417880877852 0.000000000000000
-0.001534933224320 0.001200078055263 0.000000000000000
-0.001778343692422 0.001900754868984 0.000000000000000
-0.001372912898660 -0.000381454825401 0.000000000000000
-0.002192460000515 -0.000237075611949 0.000000000000000
-0.001066901721060 -0.001215673983097 0.000000000000000
-0.000890361145139 -0.001572249457240 0.000000000000000
-0.000195902772248 -0.003556480631232 0.000000000000000
-0.001400262117386 -0.002338031306863 0.000000000000000
-0.001370504498482 -0.003683013841510 0.000000000000000
-0.001973390579224 -0.003074841573834 0.000000000000000
-0.001646365970373 -0.005800697952509 0.000000000000000
-0.002461237832904 -0.005534084513783 0.000000000000000
-0.001333607360721 -0.006835475564003 0.000000000000000
-0.001172395423055 -0.007068159058690 0.000000000000000
-0.000424595549703 -0.009507272392511 0.000000000000000
-0.002602130174637 -0.009090989828110 0.000000000000000
-0.001737480051816 -0.009636152535677 0.000000000000000
-0.001638409681618 -0.009973835200071 0.000000000000000
-0.001119609922171 -0.012873124331236 0.000000000000000
-0.002377578988671 -0.011290956288576 0.000000000000000
-0.000691965222359 -0.013842822983861 0.000000000000000
-0.000928472727537 -0.014321388676763 0.000000000000000
0.000093432143331 -0.016997037455440 0.000000000000000
-0.002694604918361 -0.015202930197120 0.000000000000000
-0.001677131280303 -0.017936626449227 0.000000000000000
-0.002017997205257 -0.017808282747865 0.000000000000000
-0.002108056098223 -0.021178936585784 0.000000000000000
-0.003081084229052 -0.019458154216409 0.000000000000000
-0.001511993817985 -0.022676674649119 0.000000000000000
-0.002110027708113 -0.022975882515311 0.000000000000000
-0.000551231205463 -0.026413002982736 0.000000000000000
-0.003250646404922 -0.025984050706029 0.000000000000000
-0.001915030181408 -0.027855051681399 0.000000000000000
-0.002381877042353 -0.028613442555070 0.000000000000000
-0.002202673815191 -0.032047919929028 0.000000000000000
-0.002689142711461 -0.030654484406114 0.000000000000000
-0.001060711219907 -0.034136749804020 0.000000000000000
-0.001353289932013 -0.034683614969254 0.000000000000000
0.000190218910575 -0.037689216434956 0.000000000000000
-0.001950025558472 -0.038334622979164 0.000000000000000
-0.000710978172719 -0.040109060704708 0.000000000000000
-0.001583449542522 -0.042268596589565 0.000000000000000
-0.002040501683950 -0.044591121375561 0.000000000000000
-0.003129103220999 -0.045235976576805 0.000000000000000
-0.001784925349057 -0.048025466501713 0.000000000000000
-0.001685742288828 -0.048758439719677 0.000000000000000
0.000273942016065 -0.052499175071716 0.000000000000000
-0.002900918945670 -0.053907625377178 0.000000000000000
-0.000762433744967 -0.054589577019215 0.000000000000000
-0.001406716182828 -0.057517655193806 0.000000000000000
-0.001095979474485 -0.061804197728634 0.000000000000000
-0.002582643181086 -0.061382956802845 0.000000000000000
-0.000521325506270 -0.065671563148499 0.000000000000000
-0.000405561178923 -0.066944122314453 0.000000000000000
0.000964906997979 -0.069981954991817 0.000000000000000
-0.001850917935371 -0.070186689496040 0.000000000000000
0.000368451699615 -0.073153100907803 0.000000000000000
-0.000724421814084 -0.074926815927029 0.000000000000000
-0.000371970236301 -0.079850785434246 0.000000000000000
-0.002463895827532 -0.079703576862812 0.000000000000000
0.000498617067933 -0.084158651530743 0.000000000000000
0.000506004318595 -0.087686188519001 0.000000000000000
0.001102049835026 -0.088939644396305 0.000000000000000
-0.002693384885788 -0.088122107088566 0.000000000000000
0.000438591465354 -0.091053284704685 0.000000000000000
-0.000052915886045 -0.091993153095245 0.000000000000000
0.000315693207085 -0.096091732382774 0.000000000000000
-0.001211231574416 -0.094995759427547 0.000000000000000
-0.000191400758922 -0.099172078073025 0.000000000000000
-0.001847861334682 -0.100057683885098 0.000000000000000
0.001034788787365 -0.104278884828091 0.000000000000000
-0.001639129593968 -0.104316838085651 0.000000000000000
0.000823481008410 -0.107368789613247 0.000000000000000
-0.000912938266993 -0.108478762209415 0.000000000000000
0.000290189869702 -0.112915761768818 0.000000000000000
-0.001322697848082 -0.112126640975475 0.000000000000000
0.001520503312349 -0.116531975567341 0.000000000000000
-0.000953104346991 -0.115635417401791 0.000000000000000
0.002138847485185 -0.120642133057117 0.000000000000000
-0.000521427020431 -0.118740133941174 0.000000000000000
0.001840654760599 -0.121466018259525 0.000000000000000
-0.000342622399330 -0.119257576763630 0.000000000000000
0.000463138334453 -0.121882669627666 0.000000000000000
-0.001487642526627 -0.120538331568241 0.000000000000000
0.001008561812341 -0.123436562716961 0.000000000000000
-0.001288229599595 -0.120546214282513 0.000000000000000
0.001741744577885 -0.125053644180298 0.000000000000000
-0.001604453660548 -0.121264539659023 0.000000000000000
0.001129243522882 -0.125345066189766 0.000000000000000
-0.000112585723400 -0.123758755624294 0.000000000000000
0.001330954022706 -0.126374244689941 0.000000000000000
-0.000850152224302 -0.125315219163895 0.000000000000000
0.001535953953862 -0.128747358918190 0.000000000000000
-0.001523265615106 -0.127237409353256 0.000000000000000
0.000806390307844 -0.129902899265289 0.000000000000000
-0.002115810289979 -0.126732602715492 0.000000000000000
0.000548485666513 -0.128073811531067 0.000000000000000
-0.000349063426256 -0.124052427709103 0.000000000000000
0.000743390060961 -0.125780567526817 0.000000000000000
-0.001403418369591 -0.124089829623699 0.000000000000000
0.000907161273062 -0.125762075185776 0.000000000000000
-0.000981228426099 -0.121390335261822 0.000000000000000
0.000733279623091 -0.122475050389767 0.000000000000000
-0.001268754713237 -0.118084631860256 0.000000000000000
0.000344138592482 -0.119475923478603 0.000000000000000
-0.000248208642006 -0.114541105926037 0.000000000000000
0.000559189356863 -0.114623539149761 0.000000000000000
-0.000307360664010 -0.112623073160648 0.000000000000000
0.000321064144373 -0.112853340804577 0.000000000000000
-0.000742334872484 -0.107070349156857 0.000000000000000
0.000736501999199 -0.108681775629520 0.000000000000000
-0.001648874022067 -0.104587562382221 0.000000000000000
0.000802394002676 -0.105161547660828 0.000000000000000
-0.000159485265613 -0.099863000214100 0.000000000000000
0.001205192878842 -0.099144518375397 0.000000000000000
-0.000749392434955 -0.095781214535236 0.000000000000000
0.000393814407289 -0.097627498209476 0.000000000000000
-0.000779312103987 -0.091336593031883 0.000000000000000
0.000596658326685 -0.093109734356403 0.000000000000000
-0.000820893794298 -0.088319621980190 0.000000000000000
0.001021369360387 -0.089074037969112 0.000000000000000
0.000523572787642 -0.084322705864906 0.000000000000000
0.001432394608855 -0.082672603428364 0.000000000000000
0.000274008139968 -0.080412656068802 0.000000000000000
-0.000042330473661 -0.080311797559261 0.000000000000000
-0.000839985907078 -0.075377315282822 0.000000000000000
0.000556912273169 -0.076077245175838 0.000000000000000
-0.000961540266871 -0.073015265166759 0.000000000000000
0.001001330092549 -0.072617165744305 0.000000000000000
0.000957801938057 -0.066860839724541 0.000000000000000
0.001396646723151 -0.067101173102856 0.000000000000000
0.000666486099362 -0.064163923263550 0.000000000000000
0.000867870636284 -0.065259009599686 0.000000000000000
0.001588780432940 -0.061007134616375 0.000000000000000
0.001378436572850 -0.060484662652016 0.000000000000000
-0.000973761081696 -0.056453086435795 0.000000000000000
0.000351299531758 -0.056822106242180 0.000000000000000
0.001889932900667 -0.052967451512814 0.000000000000000
0.001103353686631 -0.050934419035912 0.000000000000000
0.000230673700571 -0.049036368727684 0.000000000000000
0.000191643834114 -0.048413813114166 0.000000000000000
0.000192030332983 -0.046196363866329 0.000000000000000
0.000233513303101 -0.046012707054615 0.000000000000000
-0.001234654337168 -0.043682113289833 0.000000000000000
-0.000534725375473 -0.044082179665565 0.000000000000000
0.000335907563567 -0.040578648447990 0.000000000000000
-0.000189134851098 -0.040329709649086 0.000000000000000
-0.000801237300038 -0.037857919931412 0.000000000000000
-0.001154982484877 -0.038067832589149 0.000000000000000
-0.001447140239179 -0.035451680421829 0.000000000000000
-0.000785477459431 -0.035135239362717 0.000000000000000
-0.001926855184138 -0.032119452953339 0.000000000000000
-0.000171782448888 -0.032603040337563 0.000000000000000
-0.000014555640519 -0.029814871028066 0.000000000000000
-0.000318173319101 -0.028645021840930 0.000000000000000
-0.000521626323462 -0.027140391990542 0.000000000000000
-0.000422765500844 -0.026291741058230 0.000000000000000
-0.000601226463914 -0.023300370201468 0.000000000000000
-0.000041899271309 -0.022905906662345 0.000000000000000
-0.000534548424184 -0.020700031891465 0.000000000000000
0.000412000343204 -0.020501444116235 0.000000000000000
0.000563845969737 -0.017528438940644 0.000000000000000
0.000328467227519 -0.017373690381646 0.000000000000000
0.000030670315027 -0.015499783679843 0.000000000000000
0.000455184839666 -0.016312835738063 0.000000000000000
0.000183064490557 -0.013390140607953 0.000000000000000
-0.000000352039933 -0.013534991070628 0.000000000000000
-0.000088801607490 -0.011737244203687 0.000000000000000
0.000487672165036 -0.011343024671078 0.000000000000000
-0.000359402969480 -0.009009381756186 0.000000000000000
-0.000699488446116 -0.008506959304214 0.000000000000000
-0.001033990643919 -0.007994940504432 0.000000000000000
0.000134194269776 -0.007848391309381 0.000000000000000
-0.001433803699911 -0.004934445023537 0.000000000000000
-0.000935039483011 -0.005572590976954 0.000000000000000
-0.001978026703000 -0.004590990021825 0.000000000000000
-0.000723610632122 -0.003440054133534 0.000000000000000
0.000907490029931 -0.001456378027797 0.000000000000000
-0.000903300940990 -0.002034742385149 0.000000000000000
-0.001309070736170 -0.000673897564411 0.000000000000000
-0.002065556123853 -0.001270741224289 0.000000000000000
0.001257406547666 -0.000126214697957 0.000000000000000
-0.000265708193183 0.002557385712862 0.000000000000000
-0.000052986666560 0.001909146085382 0.000000000000000
-0.001651354134083 0.002867265604436 0.000000000000000
0.000931445509195 0.000796278938651 0.000000000000000
-0.001558085903525 0.001884361729026 0.000000000000000
-0.000352392904460 0.002389045432210 0.000000000000000
-0.001405335962772 0.002557622268796 0.000000000000000
0.000388607382774 0.002357833087444 0.000000000000000
-0.001478530466557 0.004121821373701 0.000000000000000
-0.000529414042830 0.004117440432310 0.000000000000000
-0.001535693183541 0.003728576935828 0.000000000000000
0.000421633943915 0.003371311351657 0.000000000000000
-0.001418206840754 0.004562997259200 0.000000000000000
-0.000241799280047 0.004550026729703 0.000000000000000
-0.001348078250885 0.004777322523296 0.000000000000000
0.000349789857864 0.003693044185638 0.000000000000000
-0.001050848513842 0.005581523291767 0.000000000000000
-0.000031093135476 0.005617067217827 0.000000000000000
-0.001310021616518 0.005183532834053 0.000000000000000
0.000508382916451 0.004696303978562 0.000000000000000
-0.001395501196384 0.006077661179006 0.000000000000000
-0.000506375916302 0.006251461803913 0.000000000000000
-0.001593830063939 0.006297043524683 0.000000000000000
0.000295018777251 0.005333013832569 0.000000000000000
-0.001190072856843 0.007060048170388 0.000000000000000
-0.000547274015844 0.007079273462296 0.000000000000000
-0.001812536269426 0.006800470873713 0.000000000000000
0.000301575288177 0.005913475528359 0.000000000000000
-0.001459800638258 0.007212920114398 0.000000000000000
-0.000736320391297 0.007500177249312 0.000000000000000
-0.001706318929791 0.007612731307745 0.000000000000000
0.000240631401539 0.006299873813987 0.000000000000000
-0.001103362999856 0.007995110005140 0.000000000000000
-0.000334441661835 0.007800510153174 0.000000000000000
-0.001797406002879 0.007376477122307 0.000000000000000
0.000355368480086 0.006668601185083 0.000000000000000
-0.001440967433155 0.007848853245378 0.000000000000000
-0.000563332810998 0.007962247356772 0.000000000000000
-0.001555288210511 0.008060089312494 0.000000000000000
0.000110566616058 0.006600955501199 0.000000000000000
-0.001193386502564 0.007926709018648 0.000000000000000
-0.000447615049779 0.007572559639812 0.000000000000000
-0.001879109069705 0.007181564345956 0.000000000000000
0.000442964956164 0.006900856271386 0.000000000000000
-0.001185053959489 0.007912328466773 0.000000000000000
-0.000507941469550 0.008014254271984 0.000000000000000
-0.001211300492287 0.007997063919902 0.000000000000000
0.000487061217427 0.006777826696634 0.000000000000000
-0.000659539364278 0.008188281208277 0.000000000000000
0.000142110511661 0.007829966023564 0.000000000000000
-0.001336512155831 0.007123672403395 0.000000000000000
0.000436915084720 0.006666025146842 0.000000000000000
-0.001293722540140 0.007691258564591 0.000000000000000
-0.000601093284786 0.007350891828537 0.000000000000000
-0.001664241775870 0.007217781618237 0.000000000000000
0.000069933012128 0.005896113812923 0.000000000000000
-0.001167684793472 0.007479418069124 0.000000000000000
-0.000484850257635 0.007327264174819 0.000000000000000
-0.001808643341064 0.006704479455948 0.000000000000000
0.000401372089982 0.005910292267799 0.000000000000000
-0.001548583619297 0.006512339226902 0.000000000000000
-0.001026302576065 0.006308583542705 0.000000000000000
-0.001992799341679 0.006151671521366 0.000000000000000
-0.000458762049675 0.004316875711083 0.000000000000000
-0.001697733998299 0.005681641399860 0.000000000000000
-0.001199636608362 0.005452746525407 0.000000000000000
-0.002711774781346 0.004823735915124 0.000000000000000
-0.000413635745645 0.004087125882506 0.000000000000000
-0.002333223819733 0.004654297605157 0.000000000000000
-0.001531325280666 0.004302693530917 0.000000000000000
-0.002601927146316 0.004435695707798 0.000000000000000
-0.000982118770480 0.002558963373303 0.000000000000000
-0.002395603805780 0.003436271101236 0.000000000000000
-0.001529923640192 0.002616045996547 0.000000000000000
-0.003180210478604 0.001820849254727 0.000000000000000
-0.000722449272871 0.000888440757990 0.000000000000000
-0.002378582954407 0.001449735835195 0.000000000000000
-0.001789925619960 0.000520901754498 0.000000000000000
-0.002677422016859 0.000609917566180 0.000000000000000
-0.000752532854676 -0.001480359584093 0.000000000000000
-0.002348466776311 -0.000506939366460 0.000000000000000
-0.001051114872098 -0.001452790573239 0.000000000000000
-0.002844459377229 -0.002857135608792 0.000000000000000
-0.000866169109941 -0.004035772755742 0.000000000000000
-0.003145381808281 -0.003608493134379 0.000000000000000
-0.002489073202014 -0.004670003429055 0.000000000000000
-0.003778946585953 -0.005050171166658 0.000000000000000
-0.001586874946952 -0.007327074185014 0.000000000000000
-0.002963286824524 -0.006402483209968 0.000000000000000
-0.001931798644364 -0.007602926343679 0.000000000000000
-0.003610893152654 -0.008767453953624 0.000000000000000
-0.001115743070841 -0.009894045069814 0.000000000000000
-0.002955066971481 -0.009724741801620 0.000000000000000
-0.001808169297874 -0.010415794327855 0.000000000000000
-0.003059259615839 -0.011249627918005 0.000000000000000
-0.001360449939966 -0.014431564137340 0.000000000000000
-0.002988114953041 -0.013329291716218 0.000000000000000
-0.002260495908558 -0.015154069289565 0.000000000000000
-0.004047513008118 -0.016596728935838 0.000000000000000
-0.001819223165512 -0.018240263685584 0.000000000000000
-0.004161259159446 -0.018236095085740 0.000000000000000
-0.003624153323472 -0.019624808803201 0.000000000000000
-0.005003570578992 -0.020555188879371 0.000000000000000
-0.003143671900034 -0.024122072383761 0.000000000000000
-0.004570296965539 -0.023098299279809 0.000000000000000
-0.003104260191321 -0.025133794173598 0.000000000000000
-0.005064727738500 -0.027183571830392 0.000000000000000
-0.002885531634092 -0.029296984896064 0.000000000000000
-0.005101413466036 -0.029222762212157 0.000000000000000
-0.004184502176940 -0.030826533213258 0.000000000000000
-0.005359723232687 -0.032097108662128 0.000000000000000
-0.003258891403675 -0.036538347601891 0.000000000000000
-0.004790875129402 -0.034717544913292 0.000000000000000
-0.003527428954840 -0.037223927676678 0.000000000000000
-0.005397913977504 -0.039268583059311 0.000000000000000
-0.003462258726358 -0.042536519467831 0.000000000000000
-0.006040448322892 -0.043294690549374 0.000000000000000
-0.005399523302913 -0.045574426651001 0.000000000000000
-0.006446931511164 -0.047148659825325 0.000000000000000
-0.004019886255264 -0.050840295851231 0.000000000000000
-0.005118592642248 -0.050800412893295 0.000000000000000
-0.004420416429639 -0.052080526947975 0.000000000000000
-0.006170455366373 -0.054147399961948 0.000000000000000
-0.003439232707024 -0.058420844376087 0.000000000000000
-0.005356757901609 -0.059783056378365 0.000000000000000
-0.005047019571066 -0.062085069715977 0.000000000000000
-0.006394430994987 -0.064015485346317 0.000000000000000
-0.003752034157515 -0.067021310329437 0.000000000000000
-0.005014110356569 -0.067525804042816 0.000000000000000
-0.004988536238670 -0.069374583661556 0.000000000000000
-0.006726250052452 -0.071072742342949 0.000000000000000
-0.003557130694389 -0.075006373226643 0.000000000000000
-0.005284719169140 -0.077311903238297 0.000000000000000
-0.004798933863640 -0.079983018338680 0.000000000000000
-0.006912579759955 -0.081371836364269 0.000000000000000
-0.003571022301912 -0.084289126098156 0.000000000000000
-0.004749517887831 -0.085702538490295 0.000000000000000
-0.003587901592255 -0.087684385478497 0.000000000000000
-0.005463737994432 -0.088702410459518 0.000000000000000
-0.002590902149677 -0.091518975794315 0.000000000000000
-0.004467175342143 -0.093420550227165 0.000000000000000
-0.003574407659471 -0.095368929207325 0.000000000000000
-0.005844598636031 -0.095801442861557 0.000000000000000
-0.002944316715002 -0.099604159593582 0.000000000000000
-0.004256958141923 -0.100639246404171 0.000000000000000
-0.002730555832386 -0.102394476532936 0.000000000000000
-0.005401967093349 -0.103564850986004 0.000000000000000
-0.002093285322189 -0.107590936124325 0.000000000000000
-0.004420796409249 -0.108442120254040 0.000000000000000
-0.002301411703229 -0.111827082931995 0.000000000000000
-0.004005995579064 -0.111934535205364 0.000000000000000
-0.000852473080158 -0.115151293575764 0.000000000000000
-0.002572186291218 -0.115722261369228 0.000000000000000
-0.000622596591711 -0.117204777896404 0.000000000000000
-0.002615846693516 -0.117517597973347 0.000000000000000
0.000254221260548 -0.119173042476177 0.000000000000000
-0.002623926848173 -0.118437685072422 0.000000000000000
-0.000779537484050 -0.119361437857151 0.000000000000000
-0.002741731703281 -0.119218043982983 0.000000000000000
0.000237658619881 -0.121939875185490 0.000000000000000
-0.001953965052962 -0.120118401944637 0.000000000000000
0.000184953212738 -0.121624372899532 0.000000000000000
-0.001832591369748 -0.121775604784489 0.000000000000000
0.001548152416945 -0.124245963990688 0.000000000000000
-0.001830888912082 -0.123181603848934 0.000000000000000
0.000694436952472 -0.125087335705757 0.000000000000000
-0.002018339000642 -0.124603591859341 0.000000000000000
0.000829648226500 -0.127344653010368 0.000000000000000
-0.001856005750597 -0.124315612018108 0.000000000000000
0.000411234796047 -0.124905176460743 0.000000000000000
-0.002685985527933 -0.123868145048618 0.000000000000000
0.001714058220387 -0.124445505440235 0.000000000000000
-0.002172608859837 -0.122104711830616 0.000000000000000
0.000862281769514 -0.122517950832844 0.000000000000000
-0.002010372467339 -0.120505221188068 0.000000000000000
0.002158276736736 -0.120849601924419 0.000000000000000
-0.001439161598682 -0.116927735507488 0.000000000000000
0.001630306243896 -0.115437574684620 0.000000000000000
-0.001482494175434 -0.114043153822422 0.000000000000000
0.002436581999063 -0.114065609872341 0.000000000000000
-0.001019880175591 -0.110953561961651 0.000000000000000
0.002300139516592 -0.109480030834675 0.000000000000000
-0.000517375767231 -0.106811404228210 0.000000000000000
0.003380507230759 -0.106866769492626 0.000000000000000
-0.000018563121557 -0.103514745831490 0.000000000000000
0.002595391124487 -0.102378182113171 0.000000000000000
0.000096737407148 -0.100571647286415 0.000000000000000
0.003334391862154 -0.099944159388542 0.000000000000000
0.000464797019958 -0.097037777304649 0.000000000000000
0.002160727977753 -0.095204703509808 0.000000000000000
-0.000211056321859 -0.092479437589645 0.000000000000000
0.003145467489958 -0.091782674193382 0.000000000000000
0.000441541895270 -0.088596433401108 0.000000000000000
0.002629831433296 -0.087525539100170 0.000000000000000
0.000502666458488 -0.085656069219112 0.000000000000000
0.003447379916906 -0.084413506090641 0.000000000000000
0.000909835100174 -0.081524051725864 0.000000000000000
0.003229596652091 -0.079389549791813 0.000000000000000
0.000621523708105 -0.077405102550983 0.000000000000000
0.002830073237419 -0.076327838003635 0.000000000000000
0.000537467189133 -0.073403641581535 0.000000000000000
0.001988239586353 -0.071268185973167 0.000000000000000
0.000484762713313 -0.069726213812828 0.000000000000000
0.003232527524233 -0.068754300475121 0.000000000000000
0.001276897266507 -0.066463701426983 0.000000000000000
0.002771483734250 -0.064275451004505 0.000000000000000
0.001114202663302 -0.062795989215374 0.000000000000000
0.003121361136436 -0.061206504702568 0.000000000000000
0.000724077224731 -0.058432519435883 0.000000000000000
0.001632159575820 -0.056138582527637 0.000000000000000
0.000333047471941 -0.054869487881660 0.000000000000000
0.002903163433075 -0.053879179060459 0.000000000000000
0.000682558864355 -0.051451839506626 0.000000000000000
0.002360061742365 -0.047956757247448 0.000000000000000
0.000633327290416 -0.047096632421017 0.000000000000000
0.002427648752928 -0.046810552477837 0.000000000000000
0.000489044934511 -0.043582886457443 0.000000000000000
0.002102123573422 -0.042606189846992 0.000000000000000
0.000903012230992 -0.042145997285843 0.000000000000000
0.002763690426946 -0.041711077094078 0.000000000000000
0.000259988941252 -0.039443343877792 0.000000000000000
0.001930615864694 -0.036689288914204 0.000000000000000
-0.000077968463302 -0.036265388131142 0.000000000000000
0.001653464511037 -0.036720916628838 0.000000000000000
-0.000446910038590 -0.032332934439182 0.000000000000000
0.001302108168602 -0.031356565654278 0.000000000000000
-0.000178334303200 -0.030984899029136 0.000000000000000
0.001874577254057 -0.030282719060779 0.000000000000000
-0.000356575474143 -0.027668869122863 0.000000000000000
0.001688897609711 -0.026086812838912 0.000000000000000
0.000016210600734 -0.025177916511893 0.000000000000000
0.002211468294263 -0.025377651676536 0.000000000000000
-0.000055180862546 -0.021815480664372 0.000000000000000
0.001041859388351 -0.020751504227519 0.000000000000000
0.000162365846336 -0.020098296925426 0.000000000000000
0.002304289489985 -0.019363572821021 0.000000000000000
-0.000221144407988 -0.017412213608623 0.000000000000000
0.001136739738286 -0.015790162608027 0.000000000000000
0.000081583857536 -0.015117527917027 0.000000000000000
0.002428509294987 -0.015207020565867 0.000000000000000
0.000193138606846 -0.012247344478965 0.000000000000000
0.001151973381639 -0.012149557471275 0.000000000000000
0.000016368925571 -0.011709420010448 0.000000000000000
0.001528641209006 -0.011469015851617 0.000000000000000
-0.000537070445716 -0.008914865553379 0.000000000000000
0.000260340049863 -0.008238971233368 0.000000000000000
-0.000580598600209 -0.007022649049759 0.000000000000000
0.001864971593022 -0.007071550935507 0.000000000000000
0.000375196337700 -0.004153830930591 0.000000000000000
0.000349528156221 -0.003371456637979 0.000000000000000
-0.000636391341686 -0.002168409526348 0.000000000000000
0.002715516835451 -0.002627599984407 0.000000000000000
-0.000754249282181 -0.001023441553116 0.000000000000000
0.001228233799338 0.000422805547714 0.000000000000000
0.000800549983978 0.000369722023606 0.000000000000000
0.000786106102169 0.002965068444610 0.000000000000000
0.001147910021245 0.000923657789826 0.000000000000000
-0.000775333493948 0.003599382005632 0.000000000000000
0.000551689416170 0.001846098341048 0.000000000000000
-0.000734116882086 0.002147894352674 0.000000000000000
0.000343853607774 0.001132870092988 0.000000000000000
-0.000498477369547 0.004806983284652 0.000000000000000
0.000159733928740 0.002284277230501 0.000000000000000
-0.000214511528611 0.003574524074793 0.000000000000000
0.000334119424224 0.002223902381957 0.000000000000000
-0.001118233427405 0.005652221851051 0.000000000000000
-0.000199387781322 0.003391709178686 0.000000000000000
-0.000386847183108 0.004502434283495 0.000000000000000
-0.000002605840564 0.003336209803820 0.000000000000000
-0.001064980402589 0.006640043109655 0.000000000000000
-0.000196891836822 0.003852252848446 0.000000000000000
-0.000341953709722 0.004964424297214 0.000000000000000
0.000406061299145 0.003632591105998 0.000000000000000
-0.000929513946176 0.007036634720862 0.000000000000000
-0.000178204849362 0.004652941599488 0.000000000000000
-0.000189861282706 0.005729785189033 0.000000000000000
0.000404006801546 0.004817834123969 0.000000000000000
-0.001008016988635 0.008226096630096 0.000000000000000
-0.000217082910240 0.005347715690732 0.000000000000000
-0.000174075365067 0.006192298606038 0.000000000000000