# vtk DataFile Version 2.0
B_vector
ASCII
DATASET STRUCTURED_POINTS
DIMENSIONS 257 257 1
ORIGIN 0.000000 0.000000 0.000000
SPACING 8.000000 8.000000 1
CELL_DATA 65536
VECTORS B float
-0.000135559757491 -0.000137618530277 0.000000000000000
-0.000069398986608 -0.000297157470661 0.000000000000000
-0.000150944251221 -0.000436769134865 0.000000000000000
-0.000175790021686 -0.000712745762695 0.000000000000000
-0.000092464334909 -0.000864475608126 0.000000000000000
-0.000169332109624 -0.000990992317771 0.000000000000000
-0.000160722030122 -0.001279614969446 0.000000000000000
-0.000074708800150 -0.001431312388068 0.000000000000000
-0.000162411633168 -0.001558336210536 0.000000000000000
-0.000165303275089 -0.001855925523929 0.000000000000000
-0.000081200714649 -0.002001595431656 0.000000000000000
-0.000161476187969 -0.002140948090465 0.000000000000000
-0.000079293990839 -0.002279221712043 0.000000000000000
-0.000168659346251 -0.002424058034928 0.000000000000000
-0.000165415597433 -0.002718349795087 0.000000000000000
-0.000080952262603 -0.002864982153297 0.000000000000000
-0.000164207191470 -0.003006287496722 0.000000000000000
-0.000165883207873 -0.003300438126032 0.000000000000000
-0.000071624661513 -0.003447210705055 0.000000000000000
-0.000166654929733 -0.003600493606731 0.000000000000000
-0.000174348396065 -0.003900385195998 0.000000000000000
-0.000087739291139 -0.004050396565747 0.000000000000000
-0.000177476726057 -0.004185960443258 0.000000000000000
-0.000155331054969 -0.004498481742525 0.000000000000000
-0.000091597427274 -0.004576282982096 0.000000000000000
-0.000179276432197 -0.004811346008087 0.000000000000000
-0.000185999674627 -0.005101704216503 0.000000000000000
-0.000085037597027 -0.005276575664558 0.000000000000000
-0.000173156076793 -0.005420872428836 0.000000000000000
-0.000180225686853 -0.005739213764669 0.000000000000000
-0.000083373815144 -0.005890303477081 0.000000000000000
-0.000185069521657 -0.006043722408588 0.000000000000000
-0.000074446946171 -0.006269308350586 0.000000000000000
-0.000071665101740 -0.006482193004388 0.000000000000000
-0.000185198248731 -0.006699087317197 0.000000000000000
-0.000076733362302 -0.006871132623131 0.000000000000000
-0.000067483122241 -0.007186033445097 0.000000000000000
-0.000181221903576 -0.007358916644480 0.000000000000000
-0.000078156499006 -0.007514354410231 0.000000000000000
-0.000188995158290 -0.007693877992672 0.000000000000000
-0.000200834491976 -0.008036330025376 0.000000000000000
-0.000099890759280 -0.008211212547718 0.000000000000000
-0.000198696931758 -0.008382340368731 0.000000000000000
-0.000208007095948 -0.008733186357089 0.000000000000000
-0.000109621966951 -0.008906157723319 0.000000000000000
-0.000213672890999 -0.009089823987710 0.000000000000000
-0.000211921212302 -0.009444169198281 0.000000000000000
-0.000105510381304 -0.009658761644032 0.000000000000000
-0.000215668446290 -0.009816874956299 0.000000000000000
-0.000209007461048 -0.010182785212687 0.000000000000000
-0.000092256074854 -0.010457808773474 0.000000000000000
-0.000194654875311 -0.010580402134335 0.000000000000000
-0.000221905724788 -0.010957312356296 0.000000000000000
-0.000087107302092 -0.011190790073194 0.000000000000000
-0.000207948853625 -0.011346124891016 0.000000000000000
-0.000239722858457 -0.011759219097479 0.000000000000000
-0.000123088952598 -0.011938560814745 0.000000000000000
-0.000245838790682 -0.012148571992309 0.000000000000000
-0.000122097859674 -0.012364290835700 0.000000000000000
-0.000121508672538 -0.012782494854647 0.000000000000000
-0.000244912784020 -0.012995365669784 0.000000000000000
-0.000119914263572 -0.013211043935184 0.000000000000000
-0.000244582648855 -0.013422097989932 0.000000000000000
-0.000251455160318 -0.013872217433111 0.000000000000000
-0.000144568675065 -0.014031355332112 0.000000000000000
-0.000275259626295 -0.014318771199985 0.000000000000000
-0.000266708265118 -0.014761776593309 0.000000000000000
-0.000116309031113 -0.015012688049804 0.000000000000000
-0.000257898146580 -0.015242571959581 0.000000000000000
-0.000266522725368 -0.015713854094336 0.000000000000000
-0.000130615513679 -0.015929506104922 0.000000000000000
-0.000271681022242 -0.016205077431552 0.000000000000000
-0.000291812190622 -0.016715334521644 0.000000000000000
-0.000167333920801 -0.016890220890041 0.000000000000000
-0.000319213237804 -0.017212044575156 0.000000000000000
-0.000298753415029 -0.017724731758713 0.000000000000000
-0.000120046946119 -0.018003170453126 0.000000000000000
-0.000294041141486 -0.018275056878808 0.000000000000000
-0.000306396604424 -0.018816596079013 0.000000000000000
-0.000148374755242 -0.019070609275397 0.000000000000000
-0.000319455131344 -0.019376022542268 0.000000000000000
-0.000340216099610 -0.019968324298665 0.000000000000000
-0.000188520789313 -0.020195886131038 0.000000000000000
-0.000366433156110 -0.020537915212060 0.000000000000000
-0.000169130149470 -0.020917391121480 0.000000000000000
-0.000202275682310 -0.021315393642652 0.000000000000000
-0.000375913484148 -0.021780845152109 0.000000000000000
-0.000193451789125 -0.022063819370114 0.000000000000000
-0.000383615779438 -0.022391321536971 0.000000000000000
-0.000380403993945 -0.023053573016497 0.000000000000000
-0.000200003308355 -0.023365942134067 0.000000000000000
-0.000394329799578 -0.023751108072445 0.000000000000000
-0.000440455484925 -0.024422031850036 0.000000000000000
-0.000225041767153 -0.024857273476922 0.000000000000000
-0.000411864549835 -0.025128555152831 0.000000000000000
-0.000408354373224 -0.025879774857706 0.000000000000000
-0.000183301764292 -0.026254073034582 0.000000000000000
-0.000423821307871 -0.026632255409634 0.000000000000000
-0.000439641690255 -0.027418947468394 0.000000000000000
-0.000218478631444 -0.027763974893872 0.000000000000000
-0.000480810653364 -0.028236996128514 0.000000000000000
-0.000508018906146 -0.029041307320313 0.000000000000000
-0.000237648008976 -0.029620125886464 0.000000000000000
-0.000465358115450 -0.029925929346290 0.000000000000000
-0.000548365285388 -0.030828022932435 0.000000000000000
-0.000285256697494 -0.031269752370846 0.000000000000000
-0.000559365166565 -0.031725028445374 0.000000000000000
-0.000267553839332 -0.032228697840160 0.000000000000000
-0.000555367760834 -0.032714652261829 0.000000000000000
-0.000586166322122 -0.033705528436570 0.000000000000000
-0.000300246592033 -0.034206265428947 0.000000000000000
-0.000612963003254 -0.034731717615496 0.000000000000000
-0.000642456487894 -0.035837478432584 0.000000000000000
-0.000369205591575 -0.036292924387993 0.000000000000000
-0.000704901310725 -0.036959853824057 0.000000000000000
-0.000690427245310 -0.038109094395935 0.000000000000000
-0.000323802704190 -0.038757982401378 0.000000000000000
-0.000696667331225 -0.039377108935404 0.000000000000000
-0.000777285307362 -0.040684557669821 0.000000000000000
-0.000434066673360 -0.041247521986697 0.000000000000000
-0.000854312758041 -0.042008013735675 0.000000000000000
-0.000844905237394 -0.043422263987093 0.000000000000000
-0.000429540728795 -0.044216111673723 0.000000000000000
-0.000863786596429 -0.044961246227932 0.000000000000000
-0.000922787668676 -0.046533714636783 0.000000000000000
-0.000427863944001 -0.047343931864250 0.000000000000000
-0.000964422611065 -0.048223446111793 0.000000000000000
-0.000476608382329 -0.049003142035089 0.000000000000000
-0.000556231856223 -0.050921192865465 0.000000000000000
-0.001158346285700 -0.051844639489307 0.000000000000000
-0.000565242583912 -0.053232119110953 0.000000000000000
-0.000563284293823 -0.054655549197130 0.000000000000000
-0.001297798636811 -0.056081239162039 0.000000000000000
-0.000596645640178 -0.057303527743685 0.000000000000000
-0.001340323326340 -0.058344334307482 0.000000000000000
-0.001412905831182 -0.060890944419033 0.000000000000000
-0.000676543742877 -0.062067294240442 0.000000000000000
-0.001586002056079 -0.063569924263010 0.000000000000000
-0.001736554498215 -0.066477575655449 0.000000000000000
-0.000940595209072 -0.067856407411407 0.000000000000000
-0.001890215281904 -0.069672983042709 0.000000000000000
-0.002104273963974 -0.073091255765808 0.000000000000000
-0.001087295280930 -0.074795561086334 0.000000000000000
-0.002318368349802 -0.076926973179701 0.000000000000000
-0.002512805504807 -0.081119440839387 0.000000000000000
-0.001269212610224 -0.083257772652478 0.000000000000000
-0.002785247104763 -0.085768972985090 0.000000000000000
-0.003137528682997 -0.090945668614447 0.000000000000000
-0.001782482860500 -0.093293044893250 0.000000000000000
-0.003661384863126 -0.097013666416774 0.000000000000000
-0.002102887279304 -0.099460250295989 0.000000000000000
-0.004307801820424 -0.103402230825847 0.000000000000000
-0.004429839469605 -0.111115757631987 0.000000000000000
-0.003024153663231 -0.113085213853780 0.000000000000000
-0.005868389559513 -0.119903410870663 0.000000000000000
-0.006661878033894 -0.130017981982868 0.000000000000000
-0.003571556525265 -0.135370575846946 0.000000000000000
-0.007624347829892 -0.142391607379820 0.000000000000000
-0.009193862149187 -0.156972108430908 0.000000000000000
-0.005132641212444 -0.163980220972339 0.000000000000000
-0.011492305488859 -0.175008735704491 0.000000000000000
-0.014555135820746 -0.197950049469756 0.000000000000000
-0.008469804053198 -0.207937109393287 0.000000000000000
-0.019103028717580 -0.227339002951150 0.000000000000000
-0.026572962204927 -0.267688746631830 0.000000000000000
-0.016940091844277 -0.283091598943770 0.000000000000000
-0.037365525260903 -0.324857032100918 0.000000000000000
-0.062024826072586 -0.411267700054435 0.000000000000000
-0.043371964586553 -0.441912260237788 0.000000000000000
-0.111398973118079 -0.559738495303268 0.000000000000000
-0.240418529653861 -0.869780625444399 0.000000000000000
-0.078352991066605 -1.139591246325717 0.000000000000000
-0.430113447743598 -1.600011344700592 0.000000000000000
0.616822706506204 -2.218791105797932 0.000000000000000
0.616822706506204 -2.218791105797932 0.000000000000000
0.270732249769185 -1.198618152897162 0.000000000000000
0.082721057233495 -0.921305603539419 0.000000000000000
0.145016934643332 -0.794232257161419 0.000000000000000
0.081225466218519 -0.608659591683492 0.000000000000000
0.027290792043987 -0.525935913911690 0.000000000000000
0.052909100034217 -0.484912818275443 0.000000000000000
0.037167477145913 -0.404824212487144 0.000000000000000
0.016070259755225 -0.369166594771259 0.000000000000000
0.028290909310352 -0.347794468556575 0.000000000000000
0.021609342627460 -0.304494474359102 0.000000000000000
0.009822593928919 -0.284617832196634 0.000000000000000
0.017843110148808 -0.270174537042283 0.000000000000000
0.015389364127983 -0.243353315441213 0.000000000000000
0.007991306067121 -0.226632970605704 0.000000000000000
0.011893578350585 -0.221040239036656 0.000000000000000
0.009625747463697 -0.201399206597047 0.000000000000000
0.004072240738277 -0.191091834810421 0.000000000000000
0.008475493111247 -0.184773517184354 0.000000000000000
0.003581147752323 -0.175848591044733 0.000000000000000
0.003296806741208 -0.162617253695409 0.000000000000000
0.006777643934285 -0.157385817495477 0.000000000000000
0.003113502882466 -0.150573804556839 0.000000000000000
0.002920822302434 -0.140071226309883 0.000000000000000
0.006010706675030 -0.134719389588536 0.000000000000000
0.003064806503380 -0.129616940815346 0.000000000000000
0.005805334441502 -0.124822155950129 0.000000000000000
0.005765690805283 -0.115446380019170 0.000000000000000
0.003187456640771 -0.109712282239745 0.000000000000000
0.004892696636639 -0.107229173496091 0.000000000000000
0.004036571080844 -0.098987959772013 0.000000000000000
0.001850678091363 -0.096438153017100 0.000000000000000
0.004064712148016 -0.091291214669945 0.000000000000000
0.003996130089559 -0.084758870128208 0.000000000000000
0.001818523412801 -0.080963750514249 0.000000000000000
0.003472720359207 -0.078214904364436 0.000000000000000
0.003196612387879 -0.072310548912240 0.000000000000000
0.001450741369448 -0.069435070474505 0.000000000000000
0.002957882841673 -0.066882550562565 0.000000000000000
0.002728298641117 -0.061880127922056 0.000000000000000
0.001269071939316 -0.059458104177543 0.000000000000000
0.002491120568809 -0.057237374262578 0.000000000000000
0.002374808850607 -0.052950291879023 0.000000000000000
0.001177942234705 -0.051092013635475 0.000000000000000
0.002233057751114 -0.049104556707862 0.000000000000000
0.001012706519024 -0.046944307568701 0.000000000000000
0.000839368456488 -0.043675380116195 0.000000000000000
0.001815052004894 -0.042106443862303 0.000000000000000
0.000782412272399 -0.040348493742139 0.000000000000000
0.001670308203731 -0.039054641924872 0.000000000000000
0.001557466397371 -0.036149021588885 0.000000000000000
0.000760547308072 -0.034698555399853 0.000000000000000
0.001482108388947 -0.033450851360461 0.000000000000000
0.001399006294570 -0.030923947611565 0.000000000000000
0.000654724059760 -0.029698528827448 0.000000000000000
0.001304483772577 -0.028559413757325 0.000000000000000
0.001236553800934 -0.026350322418498 0.000000000000000
0.000577550641596 -0.025244447567887 0.000000000000000
0.001173085638208 -0.024252850186466 0.000000000000000
0.001123930700865 -0.022247787858988 0.000000000000000
0.000581843877205 -0.021299177593719 0.000000000000000
0.001098774349318 -0.020355562289463 0.000000000000000
0.001048317356664 -0.018549777610448 0.000000000000000
0.000532904125153 -0.017601417248878 0.000000000000000
0.000987211591526 -0.016824544891454 0.000000000000000
0.000941772031748 -0.015149447925059 0.000000000000000
0.000432400754432 -0.014264819736643 0.000000000000000
0.000877635203660 -0.013547012608927 0.000000000000000
0.000402753206957 -0.012780065278966 0.000000000000000
0.000391328435627 -0.011194359073648 0.000000000000000
0.000821375614964 -0.010491422975924 0.000000000000000
0.000371046370087 -0.009776621873792 0.000000000000000
0.000331359158341 -0.008304566312675 0.000000000000000
0.000761300667856 -0.007558079186975 0.000000000000000
0.000344037681010 -0.007017885284551 0.000000000000000
0.000365974817749 -0.005590887281786 0.000000000000000
0.000825445509133 -0.004795060699695 0.000000000000000
0.000322515813342 -0.003923960913954 0.000000000000000
0.000707689063212 -0.003387361820979 0.000000000000000
0.000752474699469 -0.002047123781365 0.000000000000000
0.000372743551980 -0.001465975019529 0.000000000000000
0.000650773471695 -0.000642875997995 0.000000000000000
-0.000299347693032 -0.000076100945238 0.000000000000000
-0.000340327053342 -0.000316534771606 0.000000000000000
-0.000374503071902 -0.000582777666729 0.000000000000000
-0.000374503071902 -0.000582777666729 0.000000000000000
-0.000413290462041 -0.000838228072525 0.000000000000000
-0.000415959070076 -0.001142301513454 0.000000000000000
-0.000415959070076 -0.001142301513454 0.000000000000000
-0.000393631532965 -0.001420321864058 0.000000000000000
-0.000291110309540 -0.001610851708168 0.000000000000000
-0.000377137329685 -0.001726195528254 0.000000000000000
-0.000416883083136 -0.001997664093396 0.000000000000000
-0.000315684424946 -0.002138500795368 0.000000000000000
-0.000417872292415 -0.002278239321362 0.000000000000000
-0.000422230032323 -0.002580901907638 0.000000000000000
-0.000349590062689 -0.002721153905802 0.000000000000000
-0.000432765067665 -0.002860722483660 0.000000000000000
-0.000391146515724 -0.003136157030541 0.000000000000000
-0.000391146515724 -0.003136157030541 0.000000000000000
-0.000380893211350 -0.003455849002898 0.000000000000000
-0.000418071480895 -0.003758743553807 0.000000000000000
-0.000418071480895 -0.003758743553807 0.000000000000000
-0.000442608831082 -0.004066454778633 0.000000000000000
-0.000440135600000 -0.004404513035690 0.000000000000000
-0.000310156971473 -0.004330652003067 0.000000000000000
-0.000297370144646 -0.004656801578770 0.000000000000000
-0.000441029363601 -0.004913605783684 0.000000000000000
-0.000441029363601 -0.004913605783684 0.000000000000000
-0.000405395451278 -0.005253033192715 0.000000000000000
-0.000424484310457 -0.005573634756566 0.000000000000000
-0.000424484310457 -0.005573634756566 0.000000000000000
-0.000433179673193 -0.005906808088908 0.000000000000000
-0.000409084332141 -0.005930150748725 0.000000000000000
-0.000324122907111 -0.006193689157898 0.000000000000000
-0.000316267088910 -0.006553942157762 0.000000000000000
-0.000436202152065 -0.006840617298002 0.000000000000000
-0.000415281661414 -0.006822389959137 0.000000000000000
-0.000409394100986 -0.007200876562025 0.000000000000000
-0.000328094091289 -0.007313222059381 0.000000000000000
-0.000449168946136 -0.007533921981523 0.000000000000000
-0.000462088229327 -0.007870218537265 0.000000000000000
-0.000395771375807 -0.007947670200868 0.000000000000000
-0.000500648020684 -0.008211191255099 0.000000000000000
-0.000514001232092 -0.008552648698474 0.000000000000000
-0.000514001232092 -0.008552648698474 0.000000000000000
-0.000540284172085 -0.008922928193746 0.000000000000000
-0.000560928429108 -0.009273526660774 0.000000000000000
-0.000560928429108 -0.009273526660774 0.000000000000000
-0.000510256404570 -0.009625861935441 0.000000000000000
-0.000392868843135 -0.009884413191278 0.000000000000000
-0.000502166992711 -0.010052799022755 0.000000000000000
-0.000354004003647 -0.010378773225998 0.000000000000000
-0.000409968884841 -0.010802836158477 0.000000000000000
-0.000409968884841 -0.010802836158477 0.000000000000000
-0.000448625739632 -0.011110061432223 0.000000000000000
-0.000394289368963 -0.011555757719859 0.000000000000000
-0.000394289368963 -0.011555757719859 0.000000000000000
-0.000599983676605 -0.011902057951185 0.000000000000000
-0.000480599592735 -0.012212354737368 0.000000000000000
-0.000586704825367 -0.012365495333492 0.000000000000000
-0.000601715212605 -0.012780840081774 0.000000000000000
-0.000482466054977 -0.012996869251684 0.000000000000000
-0.000606928959299 -0.013203136366723 0.000000000000000
-0.000592098686627 -0.013618385456338 0.000000000000000
-0.000482564440908 -0.013798278631269 0.000000000000000
-0.000593393812074 -0.014105281855454 0.000000000000000
-0.000634304818632 -0.014480443462669 0.000000000000000
-0.000634304818632 -0.014480443462669 0.000000000000000
-0.000602056598557 -0.015009180290262 0.000000000000000
-0.000657173287262 -0.015477022993796 0.000000000000000
-0.000657173287262 -0.015477022993796 0.000000000000000
-0.000651630306637 -0.015930808899213 0.000000000000000
-0.000690742482699 -0.016406787228696 0.000000000000000
-0.000690742482699 -0.016406787228696 0.000000000000000
-0.000710844320764 -0.016943875265907 0.000000000000000
-0.000676687456580 -0.017402326776518 0.000000000000000
-0.000676687456580 -0.017402326776518 0.000000000000000
-0.000670255410714 -0.018018807607730 0.000000000000000
-0.000542851142848 -0.018190455378726 0.000000000000000
-0.000735384899829 -0.018546946692049 0.000000000000000
-0.000746621828450 -0.019100611565070 0.000000000000000
-0.000650947053809 -0.019211763139805 0.000000000000000
-0.000803725670848 -0.019631692388573 0.000000000000000
-0.000839717870017 -0.020245474467654 0.000000000000000
-0.000839717870017 -0.020245474467654 0.000000000000000
-0.000733084405900 -0.020763301476812 0.000000000000000
-0.000638367051327 -0.021463465788325 0.000000000000000
-0.000919504936357 -0.021968508754825 0.000000000000000
-0.000919504936357 -0.021968508754825 0.000000000000000
-0.000878537405727 -0.022735124562584 0.000000000000000
-0.000878537405727 -0.022735124562584 0.000000000000000
-0.000935747734110 -0.023358714706038 0.000000000000000
-0.000975872691294 -0.024095665846187 0.000000000000000
-0.000975872691294 -0.024095665846187 0.000000000000000
-0.000968853645947 -0.024725605006617 0.000000000000000
-0.000789590373308 -0.025358340129849 0.000000000000000
-0.000945983518464 -0.025529425953706 0.000000000000000
-0.001020226697652 -0.026277595747289 0.000000000000000
-0.000782218987999 -0.026684374050653 0.000000000000000
-0.001032485208721 -0.027009211508869 0.000000000000000
-0.001119179757325 -0.027802108531328 0.000000000000000
-0.001176217670514 -0.028680058137400 0.000000000000000
-0.001176217670514 -0.028680058137400 0.000000000000000
-0.000985481848201 -0.029409547235715 0.000000000000000
-0.000944791482204 -0.030407884471986 0.000000000000000
-0.000944791482204 -0.030407884471986 0.000000000000000
-0.001330726189107 -0.031147657718706 0.000000000000000
-0.001040448839305 -0.031906218006496 0.000000000000000
-0.001291801743989 -0.032212348890344 0.000000000000000
-0.001436601680324 -0.033216668923998 0.000000000000000
-0.001436601680324 -0.033216668923998 0.000000000000000
-0.001514181240488 -0.034205416195567 0.000000000000000
-0.001503683168262 -0.035235531414350 0.000000000000000
-0.001503683168262 -0.035235531414350 0.000000000000000
-0.001519036174075 -0.036477906809021 0.000000000000000
-0.001645200374151 -0.037407433332740 0.000000000000000
-0.001645200374151 -0.037407433332740 0.000000000000000
-0.001614075015346 -0.038751898950914 0.000000000000000
-0.001783343047382 -0.039988747339245 0.000000000000000
-0.001783343047382 -0.039988747339245 0.000000000000000
-0.001922910932638 -0.041407961434425 0.000000000000000
-0.001966229068363 -0.042646930059315 0.000000000000000
-0.001966229068363 -0.042646930059315 0.000000000000000
-0.002083141876039 -0.044242900305322 0.000000000000000
-0.001713062770010 -0.044887284669905 0.000000000000000
-0.002239970600848 -0.045644794663792 0.000000000000000
-0.002234478380331 -0.047327199821374 0.000000000000000
-0.001855356696740 -0.047816882754345 0.000000000000000
-0.002483541808785 -0.049078222687016 0.000000000000000
-0.002678984105514 -0.051074186706058 0.000000000000000
-0.002678984105514 -0.051074186706058 0.000000000000000
-0.002185361376639 -0.052756405594358 0.000000000000000
-0.002372545228606 -0.055129895426198 0.000000000000000
-0.003379548652816 -0.054494292584147 0.000000000000000
-0.002990803570842 -0.056870785935802 0.000000000000000
-0.003170130040476 -0.059699874260247 0.000000000000000
-0.002714832949938 -0.060374907968549 0.000000000000000
-0.003686524166554 -0.062227000996941 0.000000000000000
-0.003991058215762 -0.064973870508787 0.000000000000000
-0.003991058215762 -0.064973870508787 0.000000000000000
-0.004555959072215 -0.067908324193738 0.000000000000000
-0.005020298407844 -0.071035113896886 0.000000000000000
-0.005020298407844 -0.071035113896886 0.000000000000000
-0.005327607692227 -0.074869191584460 0.000000000000000
-0.006020350212284 -0.078832996057519 0.000000000000000
-0.006020350212284 -0.078832996057519 0.000000000000000
-0.006668372208917 -0.083088616428223 0.000000000000000
-0.005354091256686 -0.085768194317744 0.000000000000000
-0.007087754986181 -0.088214713701581 0.000000000000000
-0.008196624121223 -0.093359047907839 0.000000000000000
-0.009396512466586 -0.100008923209268 0.000000000000000
-0.009396512466586 -0.100008923209268 0.000000000000000
-0.009548996071128 -0.105903876381088 0.000000000000000
-0.009548996071128 -0.105903876381088 0.000000000000000
-0.009263872912648 -0.115352700852420 0.000000000000000
-0.015093812263229 -0.122580097028474 0.000000000000000
-0.015093812263229 -0.122580097028474 0.000000000000000
-0.016397687280156 -0.135369475397954 0.000000000000000
-0.020243935932833 -0.148296243224888 0.000000000000000
-0.020243935932833 -0.148296243224888 0.000000000000000
-0.025162891031652 -0.163834170759028 0.000000000000000
-0.030337922961331 -0.183445861763915 0.000000000000000
-0.030337922961331 -0.183445861763915 0.000000000000000
-0.039978065848208 -0.208574816386518 0.000000000000000
-0.054070371622778 -0.239336209434649 0.000000000000000
-0.054070371622778 -0.239336209434649 0.000000000000000
-0.073572516029126 -0.284237579147810 0.000000000000000
-0.103211165814243 -0.342702933898317 0.000000000000000
-0.103211165814243 -0.342702933898317 0.000000000000000
-0.159173460138448 -0.439269812758406 0.000000000000000
-0.288010519271600 -0.598547256432257 0.000000000000000
-0.288010519271600 -0.598547256432257 0.000000000000000
-0.917931969236130 -0.790138149158168 0.000000000000000
-0.965753702724593 -1.752205593653632 0.000000000000000
-0.280467667853255 -2.834144283589457 0.000000000000000
-0.747613662316016 -1.968594642882428 0.000000000000000
0.442851221419288 -1.152185183712256 0.000000000000000
0.447564141605102 -0.814119057922186 0.000000000000000
0.199173345535503 -0.667713846191267 0.000000000000000
0.151026522359746 -0.507398369616941 0.000000000000000
0.138964034824993 -0.522497479598247 0.000000000000000
0.105866158066214 -0.428710310364844 0.000000000000000
0.105866158066214 -0.428710310364844 0.000000000000000
0.079027689202759 -0.368190669339809 0.000000000000000
0.059446327087067 -0.320849781515604 0.000000000000000
0.059446327087067 -0.320849781515604 0.000000000000000
0.047523848515535 -0.284486586990072 0.000000000000000
0.040729648714566 -0.250719982927178 0.000000000000000
0.008930166675738 -0.255367348206346 0.000000000000000
0.028839060453283 -0.230534035958230 0.000000000000000
0.021715007725880 -0.211932457227862 0.000000000000000
0.024466085730100 -0.208354528639940 0.000000000000000
0.021582725211010 -0.190936440997261 0.000000000000000
0.016109705811382 -0.180779023947876 0.000000000000000
0.019354880230714 -0.175881179625929 0.000000000000000
0.017702641877877 -0.162178230463384 0.000000000000000
0.013575504539334 -0.154404191047589 0.000000000000000
0.016011917357930 -0.150787353613285 0.000000000000000
0.015238554023018 -0.139447562642816 0.000000000000000
0.012316768885634 -0.132967671480301 0.000000000000000
0.014817888609154 -0.128873627196631 0.000000000000000
0.014500673292434 -0.118991276658210 0.000000000000000
0.003365659000847 -0.119964073204911 0.000000000000000
0.003187456640771 -0.109712282239745 0.000000000000000
0.006829540813610 -0.102546736357787 0.000000000000000
0.006829540813610 -0.102546736357787 0.000000000000000
0.007671738804558 -0.094157039879361 0.000000000000000
0.010150540409410 -0.088555756859308 0.000000000000000
0.010150540409410 -0.088555756859308 0.000000000000000
0.009162809310183 -0.081192314875837 0.000000000000000
0.008024942660793 -0.075071640071912 0.000000000000000
0.008024942660793 -0.075071640071912 0.000000000000000
0.007737953442794 -0.069292392661111 0.000000000000000
0.006757473518594 -0.064228226849267 0.000000000000000
0.006757473518594 -0.064228226849267 0.000000000000000
0.006419005314753 -0.059425252655745 0.000000000000000
0.005885760737940 -0.055118313196227 0.000000000000000
0.005885760737940 -0.055118313196227 0.000000000000000
0.005699024842125 -0.050900387615364 0.000000000000000
0.005443448207986 -0.046830647744314 0.000000000000000
0.004729259220554 -0.047420000791606 0.000000000000000
0.004337018848362 -0.043505004357353 0.000000000000000
0.003080536699027 -0.041760747916516 0.000000000000000
0.004149160607723 -0.040423081096772 0.000000000000000
0.003914857099089 -0.037280104509285 0.000000000000000
0.003041828920326 -0.035963489136776 0.000000000000000
0.003797867914499 -0.034636570903897 0.000000000000000
0.003572584384204 -0.032164804251743 0.000000000000000
0.003572584384204 -0.032164804251743 0.000000000000000
0.003340299500217 -0.029726148608214 0.000000000000000
0.003152805854901 -0.027425570365398 0.000000000000000
0.003152805854901 -0.027425570365398 0.000000000000000
0.002985607850499 -0.025213250320220 0.000000000000000
0.002873525844718 -0.023158725112563 0.000000000000000
0.002873525844718 -0.023158725112563 0.000000000000000
0.002828220333399 -0.021202818963778 0.000000000000000
0.002718547723148 -0.019403300286833 0.000000000000000
0.002718547723148 -0.019403300286833 0.000000000000000
0.002522092691191 -0.017685015965564 0.000000000000000
0.002396081322327 -0.015949769007814 0.000000000000000
0.002396081322327 -0.015949769007814 0.000000000000000
0.002265763656415 -0.014369495860292 0.000000000000000
0.001663097196594 -0.013205208558996 0.000000000000000
0.002063296985248 -0.012725624788438 0.000000000000000
0.001985474940412 -0.011249425736188 0.000000000000000
0.001533323904733 -0.010751698667396 0.000000000000000
0.002002612354010 -0.009766814882691 0.000000000000000
0.001848157431404 -0.008413035951107 0.000000000000000
0.001535186438167 -0.008040261199552 0.000000000000000
0.001731653474220 -0.006919967710167 0.000000000000000
0.001994326605279 -0.005507829641479 0.000000000000000
0.001623727942269 -0.005090552892131 0.000000000000000
0.001495223951910 -0.004188181425698 0.000000000000000
0.001409268239151 -0.002658622549454 0.000000000000000
0.002070480839234 -0.003036362837193 0.000000000000000
0.001628661917736 -0.001719708578604 0.000000000000000
0.001473535528929 -0.000341724183798 0.000000000000000
-0.000432839211759 -0.000161305884422 0.000000000000000
-0.000574462947735 -0.000366489596501 0.000000000000000
-0.000574462947735 -0.000366489596501 0.000000000000000
-0.000420488456344 -0.000547415524152 0.000000000000000
-0.000401609622551 -0.000826794086238 0.000000000000000
-0.000332104672511 -0.000984836329588 0.000000000000000
-0.000324042411559 -0.001336854616187 0.000000000000000
-0.000324042411559 -0.001336854616187 0.000000000000000
-0.000543768125232 -0.001558107898625 0.000000000000000
-0.000496095481873 -0.001845016324253 0.000000000000000
-0.000416883083136 -0.001997664093396 0.000000000000000
-0.000315684424946 -0.002138500795368 0.000000000000000
-0.000336521243676 -0.002431083247256 0.000000000000000
-0.000336521243676 -0.002431083247256 0.000000000000000
-0.000349590062689 -0.002721153905802 0.000000000000000
-0.000432765067665 -0.002860722483660 0.000000000000000
-0.000347437995082 -0.003087670287413 0.000000000000000
-0.000540257454148 -0.003299744717170 0.000000000000000
-0.000514699753787 -0.003600019177683 0.000000000000000
-0.000320352164395 -0.003526328523375 0.000000000000000
-0.000336073892328 -0.003873388292998 0.000000000000000
-0.000442608831082 -0.004066454778633 0.000000000000000
-0.000386777537450 -0.004141947869158 0.000000000000000