# vtk DataFile Version 2.0
B_vector
ASCII
DATASET STRUCTURED_POINTS
DIMENSIONS 257 257 1
ORIGIN 0.000000 0.000000 0.000000
SPACING 8.000000 8.000000 1
CELL_DATA 65536
VECTORS B float
0.000040118721992 0.000040257073820 0.000000000000000
0.000021510151300 0.000089984663548 0.000000000000000
0.000043638618806 0.000127388292418 0.000000000000000
0.000048624269555 0.000210697048380 0.000000000000000
0.000026719790261 0.000244158672432 0.000000000000000
0.000049966907341 0.000292358829004 0.000000000000000
0.000045534825014 0.000373040331800 0.000000000000000
0.000021191449153 0.000411035533953 0.000000000000000
0.000037529731224 0.000461520894756 0.000000000000000
0.000041951080905 0.000533263480301 0.000000000000000
0.000024758387377 0.000574228604901 0.000000000000000
0.000047058294782 0.000618227287257 0.000000000000000
0.000025826700975 0.000661076611843 0.000000000000000
0.000045466062402 0.000695092983653 0.000000000000000
0.000043642748186 0.000772415292204 0.000000000000000
0.000021234474787 0.000810907107169 0.000000000000000
0.000042459624157 0.000847404294003 0.000000000000000
0.000040800873671 0.000920157207174 0.000000000000000
0.000019048519456 0.000956759121373 0.000000000000000
0.000039114875454 0.000990950937780 0.000000000000000
0.000040078220901 0.001061184735579 0.000000000000000
0.000023122598016 0.001088372064593 0.000000000000000
0.000041035471592 0.001126181493858 0.000000000000000
0.000036039922686 0.001188514045638 0.000000000000000
0.000015482818093 0.001223058731418 0.000000000000000
0.000033448477835 0.001251466894134 0.000000000000000
0.000031943561070 0.001309659469573 0.000000000000000
0.000015297228181 0.001338000102586 0.000000000000000
0.000030268090894 0.001364512510454 0.000000000000000
0.000028831037736 0.001417333656160 0.000000000000000
0.000012209773376 0.001442167168667 0.000000000000000
0.000026753606772 0.001465187029783 0.000000000000000
0.000008828679763 0.001495865528442 0.000000000000000
0.000009228089940 0.001524894603015 0.000000000000000
0.000022740501184 0.001555027678353 0.000000000000000
0.000009792093135 0.001572473691909 0.000000000000000
0.000008910849989 0.001611310720363 0.000000000000000
0.000018525999559 0.001627115317826 0.000000000000000
0.000008043802625 0.001644209263502 0.000000000000000
0.000016390529149 0.001658282257383 0.000000000000000
0.000014365812838 0.001686548907355 0.000000000000000
0.000005985570196 0.001698352475593 0.000000000000000
0.000012313075806 0.001709085763940 0.000000000000000
0.000008975505784 0.001728673854245 0.000000000000000
0.000003790243678 0.001734428013685 0.000000000000000
0.000007794696145 0.001744795792968 0.000000000000000
0.000005678080034 0.001755282668638 0.000000000000000
0.000002105658885 0.001761470294130 0.000000000000000
0.000002803207194 0.001762669983954 0.000000000000000
0.000000691980432 0.001765684356867 0.000000000000000
-0.000000453602226 0.001767346802814 0.000000000000000
-0.000001863111226 0.001764225892785 0.000000000000000
-0.000004643739206 0.001758599900348 0.000000000000000
-0.000002937214200 0.001755687133619 0.000000000000000
-0.000006956478568 0.001749062925393 0.000000000000000
-0.000009296334043 0.001734819813629 0.000000000000000
-0.000005158575322 0.001727715366298 0.000000000000000
-0.000011599640689 0.001716559113829 0.000000000000000
-0.000006703231455 0.001708078284258 0.000000000000000
-0.000007765565212 0.001683044451922 0.000000000000000
-0.000016892393565 0.001667189426984 0.000000000000000
-0.000007040088846 0.001649176638443 0.000000000000000
-0.000010147591329 0.001627341204221 0.000000000000000
-0.000021712921978 0.001599386296516 0.000000000000000
-0.000011523130045 0.001584484109077 0.000000000000000
-0.000024391265124 0.001561364109238 0.000000000000000
-0.000026148788630 0.001517580202255 0.000000000000000
-0.000014128546549 0.001497393618935 0.000000000000000
-0.000027848526410 0.001469600364627 0.000000000000000
-0.000031495420880 0.001416765269602 0.000000000000000
-0.000019550929932 0.001399315715876 0.000000000000000
-0.000036505022432 0.001361965569606 0.000000000000000
-0.000036010258556 0.001303678339627 0.000000000000000
-0.000017095907195 0.001269558038714 0.000000000000000
-0.000035398681817 0.001239947266769 0.000000000000000
-0.000037384090950 0.001174052914170 0.000000000000000
-0.000013955136879 0.001138627613987 0.000000000000000
-0.000039982933664 0.001100744034557 0.000000000000000
-0.000045885563524 0.001028539868818 0.000000000000000
-0.000023495906158 0.000982709237013 0.000000000000000
-0.000044845972884 0.000952530521724 0.000000000000000
-0.000020099818623 0.000907065241456 0.000000000000000
-0.000022935757265 0.000830141110718 0.000000000000000
-0.000048615540718 0.000786638698495 0.000000000000000
-0.000026458257394 0.000743889018479 0.000000000000000
-0.000052617083568 0.000698587098311 0.000000000000000
-0.000054845943838 0.000613833366751 0.000000000000000
-0.000029630900586 0.000546770226747 0.000000000000000
-0.000050736612901 0.000517131300263 0.000000000000000
-0.000058668520537 0.000423726387251 0.000000000000000
-0.000029755109371 0.000367143141834 0.000000000000000
-0.000056021987008 0.000328851661983 0.000000000000000
-0.000054854585669 0.000226857523298 0.000000000000000
-0.000023782636893 0.000176297583297 0.000000000000000
-0.000056640192341 0.000125273115952 0.000000000000000
-0.000061052537572 0.000018993703858 0.000000000000000
-0.000030740054301 -0.000030029327154 0.000000000000000
-0.000063665367844 -0.000082427007698 0.000000000000000
-0.000057373791415 -0.000191385908745 0.000000000000000
-0.000027033411548 -0.000234076478371 0.000000000000000
-0.000062797198468 -0.000299843922692 0.000000000000000
-0.000029174898790 -0.000359493716268 0.000000000000000
-0.000025425714364 -0.000466853303941 0.000000000000000
-0.000060985084885 -0.000521779288407 0.000000000000000
-0.000028884681125 -0.000572745020884 0.000000000000000
-0.000032070467014 -0.000688545737632 0.000000000000000
-0.000065651522299 -0.000746140021432 0.000000000000000
-0.000032456467961 -0.000803200030681 0.000000000000000
-0.000065607566071 -0.000860263669738 0.000000000000000
-0.000066044754305 -0.000974553212976 0.000000000000000
-0.000032325479681 -0.001032753292065 0.000000000000000
-0.000064861271907 -0.001088428861439 0.000000000000000
-0.000064824148130 -0.001203080508112 0.000000000000000
-0.000028152364199 -0.001262036505254 0.000000000000000
-0.000063266230530 -0.001318301038916 0.000000000000000
-0.000063902832884 -0.001432943613479 0.000000000000000
-0.000028630166897 -0.001488589907426 0.000000000000000
-0.000064648933827 -0.001547242803178 0.000000000000000
-0.000064338490307 -0.001660836581156 0.000000000000000
-0.000032128428632 -0.001716142330110 0.000000000000000
-0.000065057010889 -0.001773182528291 0.000000000000000
-0.000064308874847 -0.001885335821249 0.000000000000000
-0.000032124491003 -0.001940835702733 0.000000000000000
-0.000064437310825 -0.001996817553099 0.000000000000000
-0.000063458801299 -0.002107472693071 0.000000000000000
-0.000031525676156 -0.002162942261645 0.000000000000000
-0.000061316470446 -0.002214795915143 0.000000000000000
-0.000030199126609 -0.002268150503669 0.000000000000000
-0.000030179519135 -0.002369770337145 0.000000000000000
-0.000059289226819 -0.002430155205230 0.000000000000000
-0.000032816936231 -0.002467295270520 0.000000000000000
-0.000062860951330 -0.002533131352975 0.000000000000000
-0.000058993188839 -0.002633024960377 0.000000000000000
-0.000027234949714 -0.002686813251786 0.000000000000000
-0.000056902511443 -0.002734613571125 0.000000000000000
-0.000056708757200 -0.002830810796124 0.000000000000000
-0.000024626616836 -0.002897284011849 0.000000000000000
-0.000048494904770 -0.002924779632704 0.000000000000000
-0.000042972586737 -0.003020032488786 0.000000000000000
-0.000022807771100 -0.003040208249858 0.000000000000000
-0.000050998331876 -0.003114300372319 0.000000000000000
-0.000056131973640 -0.003196272328576 0.000000000000000
-0.000029229446062 -0.003251735335334 0.000000000000000
-0.000048298665643 -0.003279764383681 0.000000000000000
-0.000045728241140 -0.003365177754207 0.000000000000000
-0.000022925923596 -0.003404675488137 0.000000000000000
-0.000045975453037 -0.003444598444221 0.000000000000000
-0.000045832904447 -0.003519245045641 0.000000000000000
-0.000024903652921 -0.003564703582724 0.000000000000000
-0.000041258096923 -0.003590488534357 0.000000000000000
-0.000019885228478 -0.003629424104930 0.000000000000000
-0.000018881803336 -0.003694622606668 0.000000000000000
-0.000037310877694 -0.003726560031668 0.000000000000000
-0.000017153259291 -0.003761464579154 0.000000000000000
-0.000034047066553 -0.003789098109002 0.000000000000000
-0.000032499375953 -0.003847553202871 0.000000000000000
-0.000015820740239 -0.003876395761403 0.000000000000000
-0.000030870886672 -0.003902459332327 0.000000000000000
-0.000028422050383 -0.003953981861216 0.000000000000000
-0.000013712719885 -0.003979094908219 0.000000000000000
-0.000026699776362 -0.004002618848454 0.000000000000000
-0.000023176562627 -0.004045550305330 0.000000000000000
-0.000011186895094 -0.004065719214052 0.000000000000000
-0.000022248277801 -0.004084878090887 0.000000000000000
-0.000019233884525 -0.004121279091238 0.000000000000000
-0.000008329428988 -0.004138994672806 0.000000000000000
-0.000016671438883 -0.004153419545384 0.000000000000000
-0.000014755303213 -0.004181343041884 0.000000000000000
-0.000007160158997 -0.004193160777554 0.000000000000000
-0.000012686698897 -0.004206026729670 0.000000000000000
-0.000011242820238 -0.004225386154788 0.000000000000000
-0.000005109960411 -0.004235987660709 0.000000000000000
-0.000008209503161 -0.004241130359229 0.000000000000000
-0.000003367764457 -0.004249508823536 0.000000000000000
-0.000002189070302 -0.004258977029461 0.000000000000000
-0.000003261859340 -0.004260848531663 0.000000000000000
-0.000001006514727 -0.004264699901417 0.000000000000000
-0.000000784853458 -0.004264328623393 0.000000000000000
0.000001525638083 -0.004263673017502 0.000000000000000
0.000001283060811 -0.004263267563503 0.000000000000000
0.000003714740372 -0.004259104083935 0.000000000000000
0.000006224767704 -0.004250376702046 0.000000000000000
0.000003433567520 -0.004245704926097 0.000000000000000
0.000008274283020 -0.004237495984011 0.000000000000000
0.000010559517872 -0.004220631247207 0.000000000000000
0.000005409206251 -0.004212495246438 0.000000000000000
0.000012747133331 -0.004199893252704 0.000000000000000
0.000015428288568 -0.004174078402115 0.000000000000000
0.000009216508304 -0.004164961452698 0.000000000000000
0.000019098382990 -0.004145333903145 0.000000000000000
0.000020243372269 -0.004113208953032 0.000000000000000
0.000010854047328 -0.004095237918225 0.000000000000000
0.000022314854740 -0.004075387217472 0.000000000000000
0.000024382171702 -0.004034946406602 0.000000000000000
0.000012715503178 -0.004014739143418 0.000000000000000
0.000027039993577 -0.003989409949170 0.000000000000000
0.000014841066717 -0.003969879976287 0.000000000000000
0.000030768597852 -0.003942424119619 0.000000000000000
0.000030850522756 -0.003890114265342 0.000000000000000
0.000015668708698 -0.003861877352550 0.000000000000000
0.000032515575543 -0.003833235940264 0.000000000000000
0.000033821724396 -0.003774522648875 0.000000000000000
0.000017091702094 -0.003747352270524 0.000000000000000
0.000014654970187 -0.003679981512995 0.000000000000000
0.000038471658310 -0.003648205024215 0.000000000000000
0.000019660892838 -0.003611744087682 0.000000000000000
0.000041352771812 -0.003572779136784 0.000000000000000
0.000047141551965 -0.003501399400728 0.000000000000000
0.000025625624748 -0.003455199610831 0.000000000000000
0.000045795173676 -0.003426058615899 0.000000000000000
0.000045907200474 -0.003345337360738 0.000000000000000
0.000023753690496 -0.003299186967536 0.000000000000000
0.000046923866584 -0.003261249492627 0.000000000000000
0.000049595934633 -0.003176521594850 0.000000000000000
0.000024908399899 -0.003133785415144 0.000000000000000
0.000051504706641 -0.003088277196637 0.000000000000000
0.000054057416002 -0.002993852307192 0.000000000000000
0.000030463396880 -0.002957083912304 0.000000000000000
0.000058926108593 -0.002901085547622 0.000000000000000
0.000031132099479 -0.002846725458170 0.000000000000000
0.000028723139376 -0.002752812943423 0.000000000000000
0.000058008005577 -0.002702915639532 0.000000000000000
0.000029165653534 -0.002652542510361 0.000000000000000
0.000058651298384 -0.002601471299851 0.000000000000000
0.000060200199064 -0.002497757069940 0.000000000000000
0.000031719546539 -0.002449844508201 0.000000000000000
0.000061341050774 -0.002390037048304 0.000000000000000
0.000065105797817 -0.002278773066556 0.000000000000000
0.000039734725891 -0.002241006226271 0.000000000000000
0.000072104656658 -0.002169483822288 0.000000000000000
0.000068564006788 -0.002058298737905 0.000000000000000
0.000035806782347 -0.001995178984110 0.000000000000000
0.000067387980830 -0.001941292394305 0.000000000000000
0.000067548155441 -0.001824026626749 0.000000000000000
0.000034509616077 -0.001766802197965 0.000000000000000
0.000070490308872 -0.001704481809958 0.000000000000000
0.000073485684430 -0.001587805996404 0.000000000000000
0.000037296984042 -0.001506293246087 0.000000000000000
0.000065905750684 -0.001464413510619 0.000000000000000
0.000074535468444 -0.001339369816671 0.000000000000000
0.000037623399675 -0.001279985785295 0.000000000000000
0.000073407038275 -0.001219374321768 0.000000000000000
0.000031360605516 -0.001153379253488 0.000000000000000
0.000029606721434 -0.001028661951722 0.000000000000000
0.000068974433225 -0.000966513404318 0.000000000000000
0.000033573313332 -0.000911707124887 0.000000000000000
0.000041747382037 -0.000782240291345 0.000000000000000
0.000079239784946 -0.000711827051867 0.000000000000000
0.000040587218459 -0.000627840901175 0.000000000000000
0.000070683616168 -0.000583262423844 0.000000000000000
0.000078368125984 -0.000451661839559 0.000000000000000
0.000037888197985 -0.000383974165257 0.000000000000000
0.000074111983846 -0.000327642731054 0.000000000000000
0.000067237722696 -0.000196468641200 0.000000000000000
0.000026126214912 -0.000137862803702 0.000000000000000
0.000064657609044 -0.000066797203810 0.000000000000000
0.000088962654173 0.000022379156825 0.000000000000000
0.000100660557227 0.000100238287244 0.000000000000000
0.000120996938008 0.000165412038330 0.000000000000000
0.000120996938008 0.000165412038330 0.000000000000000
0.000119800326920 0.000247921991669 0.000000000000000
0.000114638217330 0.000325868995259 0.000000000000000
0.000114638217330 0.000325868995259 0.000000000000000
0.000100541649387 0.000398664446930 0.000000000000000
0.000077728469285 0.000468545680879 0.000000000000000
0.000090557720036 0.000507088850015 0.000000000000000
0.000097803021461 0.000594485261244 0.000000000000000
0.000047058294782 0.000618227287257 0.000000000000000
0.000108594400837 0.000650117897151 0.000000000000000
0.000106900376529 0.000734880861486 0.000000000000000
0.000084743752349 0.000772129724804 0.000000000000000
0.000105319266446 0.000810718133071 0.000000000000000
0.000104006852593 0.000884943544880 0.000000000000000
0.000080962609003 0.000917339477658 0.000000000000000
0.000099968007722 0.000952864454757 0.000000000000000
0.000092536403014 0.001026077506051 0.000000000000000
0.000081074556605 0.001037993759513 0.000000000000000
0.000095740352031 0.001100138200856 0.000000000000000
0.000021442976289 0.001166383914055 0.000000000000000
0.000083580617450 0.001151736762253 0.000000000000000
0.000080018608030 0.001223895397938 0.000000000000000
0.000083026018732 0.001284388259770 0.000000000000000
0.000083026018732 0.001284388259770 0.000000000000000
0.000078993544618 0.001337661547732 0.000000000000000
0.000071115728906 0.001388786913627 0.000000000000000
0.000071115728906 0.001388786913627 0.000000000000000
0.000065993789872 0.001442829657186 0.000000000000000
0.000061720496209 0.001496429629789 0.000000000000000
0.000043691242398 0.001486361147143 0.000000000000000
0.000040143158790 0.001534564850657 0.000000000000000
0.000050724977939 0.001569300465679 0.000000000000000
0.000052723881885 0.001571328734319 0.000000000000000
0.000048620664754 0.001611626896936 0.000000000000000
0.000035397350864 0.001635232175090 0.000000000000000
0.000041961351332 0.001644369037113 0.000000000000000
0.000038000651604 0.001672851395353 0.000000000000000
0.000028256646412 0.001687889606168 0.000000000000000
0.000033118582764 0.001698231910931 0.000000000000000
0.000028242121592 0.001724507436322 0.000000000000000
0.000019008555471 0.001718829276048 0.000000000000000
0.000016383133421 0.001738787057241 0.000000000000000
0.000016138557908 0.001750732254898 0.000000000000000
0.000016138557908 0.001750732254898 0.000000000000000
0.000010245646840 0.001761193271173 0.000000000000000
0.000004608005813 0.001765908560340 0.000000000000000
0.000004608005813 0.001765908560340 0.000000000000000
-0.000000564950112 0.001767344297406 0.000000000000000
-0.000005690025972 0.001764067709625 0.000000000000000
-0.000005690025972 0.001764067709625 0.000000000000000
-0.000014768925956 0.001756875659076 0.000000000000000
-0.000013909088528 0.001755428312702 0.000000000000000
-0.000020266797808 0.001743960242729 0.000000000000000
-0.000025073131092 0.001727238183373 0.000000000000000
-0.000024329849026 0.001726303427523 0.000000000000000
-0.000031629827713 0.001708220159132 0.000000000000000
-0.000036839447170 0.001682224650382 0.000000000000000
-0.000040931706924 0.001686236664367 0.000000000000000
-0.000035937433315 0.001656902005260 0.000000000000000
-0.000033104030013 0.001620106579410 0.000000000000000
-0.000048586162921 0.001594915192444 0.000000000000000
-0.000056776992354 0.001586399159674 0.000000000000000
-0.000063066515733 0.001541419120270 0.000000000000000
-0.000063066515733 0.001541419120270 0.000000000000000
-0.000066070219676 0.001497927347064 0.000000000000000
-0.000073311158008 0.001450496046917 0.000000000000000
-0.000062733342228 0.001433821019559 0.000000000000000
-0.000077367858334 0.001393061194550 0.000000000000000
-0.000086264005521 0.001340015589110 0.000000000000000
-0.000086264005521 0.001340015589110 0.000000000000000
-0.000090500392664 0.001271777037476 0.000000000000000
-0.000071198835636 0.001229041379591 0.000000000000000
-0.000087097262304 0.001211971965758 0.000000000000000
-0.000083840355175 0.001140778335480 0.000000000000000
-0.000072201572409 0.001126257118475 0.000000000000000
-0.000090100503135 0.001057398724790 0.000000000000000
-0.000104182749405 0.000995352672008 0.000000000000000
-0.000104182749405 0.000995352672008 0.000000000000000
-0.000102732242247 0.000907881432925 0.000000000000000
-0.000114238168096 0.000819770246494 0.000000000000000
-0.000099995507662 0.000803249535403 0.000000000000000
-0.000129117729428 0.000747712424426 0.000000000000000
-0.000132905424571 0.000645728695048 0.000000000000000
-0.000132905424571 0.000645728695048 0.000000000000000
-0.000097443987442 0.000567749394982 0.000000000000000
-0.000114355262080 0.000460837708669 0.000000000000000
-0.000114355262080 0.000460837708669 0.000000000000000
-0.000134585082066 0.000383897708940 0.000000000000000
-0.000110558883785 0.000293869726299 0.000000000000000
-0.000128173288688 0.000275086406546 0.000000000000000
-0.000135208059910 0.000174178576161 0.000000000000000
-0.000101206606544 0.000112578970717 0.000000000000000
-0.000133587430010 0.000074319942651 0.000000000000000
-0.000146282417329 -0.000046951313794 0.000000000000000
-0.000157064195719 -0.000037279782079 0.000000000000000
-0.000120353853059 -0.000131121019328 0.000000000000000
-0.000125411167321 -0.000257451421349 0.000000000000000
-0.000162597965958 -0.000359886467978 0.000000000000000
-0.000144391287061 -0.000343526764608 0.000000000000000
-0.000143276061534 -0.000469561252199 0.000000000000000
-0.000114004801958 -0.000507388835710 0.000000000000000
-0.000156656413025 -0.000582361626126 0.000000000000000
-0.000160949798963 -0.000688620373456 0.000000000000000
-0.000129089688231 -0.000749827425160 0.000000000000000
-0.000161808759719 -0.000803489561707 0.000000000000000
-0.000162620280917 -0.000917262482799 0.000000000000000
-0.000129115318660 -0.000972919336493 0.000000000000000
-0.000164598942405 -0.001031586309157 0.000000000000000
-0.000161927678650 -0.001141296327088 0.000000000000000
-0.000161927678650 -0.001141296327088 0.000000000000000
-0.000151814657291 -0.001259321224346 0.000000000000000
-0.000156456754752 -0.001375331824551 0.000000000000000
-0.000156456754752 -0.001375331824551 0.000000000000000
-0.000153022286444 -0.001490608709945 0.000000000000000
-0.000161843009746 -0.001608363766235 0.000000000000000
-0.000161843009746 -0.001608363766235 0.000000000000000
-0.000163570135259 -0.001717201955359 0.000000000000000
-0.000160692931586 -0.001829687963255 0.000000000000000
-0.000160692931586 -0.001829687963255 0.000000000000000
-0.000159656930077 -0.001941025337149 0.000000000000000
-0.000159497219727 -0.002054165017825 0.000000000000000
-0.000159497219727 -0.002054165017825 0.000000000000000
-0.000161691725521 -0.002160464923390 0.000000000000000
-0.000127060545616 -0.002222572671115 0.000000000000000
-0.000153744648436 -0.002266778045280 0.000000000000000
-0.000142720441668 -0.002367835336731 0.000000000000000
-0.000141067280784 -0.002478807252938 0.000000000000000
-0.000141067280784 -0.002478807252938 0.000000000000000
-0.000143021154547 -0.002575072288116 0.000000000000000
-0.000106910869659 -0.002631017502479 0.000000000000000
-0.000139298886736 -0.002686223577506 0.000000000000000
-0.000135212139161 -0.002791523254420 0.000000000000000
-0.000135212139161 -0.002791523254420 0.000000000000000
-0.000107971489971 -0.002877368111402 0.000000000000000
-0.000091472281385 -0.002973428641136 0.000000000000000
-0.000089660220903 -0.002972040574256 0.000000000000000
-0.000069118311711 -0.003060814183889 0.000000000000000
-0.000130248063061 -0.003154184283330 0.000000000000000
-0.000130248063061 -0.003154184283330 0.000000000000000
-0.000120717840266 -0.003241922683832 0.000000000000000
-0.000094481720274 -0.003298655398158 0.000000000000000
-0.000114089548361 -0.003328564262416 0.000000000000000
-0.000107461411815 -0.003404678232672 0.000000000000000
-0.000108081767202 -0.003492739712872 0.000000000000000
-0.000108081767202 -0.003492739712872 0.000000000000000
-0.000099775713158 -0.003551272307893 0.000000000000000
-0.000079431694664 -0.003602020169049 0.000000000000000
-0.000097077351214 -0.003631091939727 0.000000000000000
-0.000094178178418 -0.003694633584814 0.000000000000000
-0.000072868416874 -0.003744425952161 0.000000000000000
-0.000084634414054 -0.003758198714303 0.000000000000000
-0.000083853733479 -0.003822000309989 0.000000000000000
-0.000064821938793 -0.003854519871232 0.000000000000000
-0.000079179725362 -0.003876464048496 0.000000000000000
-0.000073398602952 -0.003930079741816 0.000000000000000
-0.000073398602952 -0.003930079741816 0.000000000000000
-0.000067069931795 -0.003978257807244 0.000000000000000
-0.000062614389825 -0.004026403833714 0.000000000000000
-0.000062614389825 -0.004026403833714 0.000000000000000
-0.000058607390966 -0.004066300723351 0.000000000000000
-0.000049251706596 -0.004104297773011 0.000000000000000
-0.000049251706596 -0.004104297773011 0.000000000000000
-0.000044782988454 -0.004138864968082 0.000000000000000
-0.000038419746457 -0.004168696684921 0.000000000000000
-0.000038419746457 -0.004168696684921 0.000000000000000
-0.000034599469323 -0.004193675436551 0.000000000000000
-0.000029810337834 -0.004216756567595 0.000000000000000
-0.000029810337834 -0.004216756567595 0.000000000000000
-0.000021464514954 -0.004234325217593 0.000000000000000
-0.000014899557140 -0.004246788536962 0.000000000000000
-0.000016543267697 -0.004249707471387 0.000000000000000
-0.000010678550535 -0.004258985138164 0.000000000000000
-0.000006842254901 -0.004267922816855 0.000000000000000
-0.000004399847683 -0.004264578079879 0.000000000000000
0.000000941159255 -0.004265906997248 0.000000000000000
0.000002998758422 -0.004268847146182 0.000000000000000
0.000006669108019 -0.004263157698138 0.000000000000000
0.000013297655691 -0.004257025297238 0.000000000000000
0.000013297655691 -0.004257025297238 0.000000000000000
0.000017655645138 -0.004245788969850 0.000000000000000
0.000023863869592 -0.004231277553183 0.000000000000000
0.000023863869592 -0.004231277553183 0.000000000000000
0.000028157229911 -0.004212887291279 0.000000000000000
0.000033274743841 -0.004190173583582 0.000000000000000
0.000033274743841 -0.004190173583582 0.000000000000000
0.000038578305311 -0.004161942601724 0.000000000000000
0.000047482885116 -0.004132117540048 0.000000000000000
0.000047482885116 -0.004132117540048 0.000000000000000
0.000052277715884 -0.004094903500748 0.000000000000000
0.000042701259781 -0.004073801308001 0.000000000000000
0.000056160105012 -0.004056957160967 0.000000000000000
0.000062714775943 -0.004016062032160 0.000000000000000
0.000049437469497 -0.003993060662605 0.000000000000000
0.000068153761521 -0.003964268304898 0.000000000000000
0.000071006581610 -0.003918462071617 0.000000000000000
0.000071006581610 -0.003918462071617 0.000000000000000
0.000076687095327 -0.003860218412451 0.000000000000000
0.000085324830032 -0.003805960169900 0.000000000000000
0.000070961870223 -0.003781676878869 0.000000000000000
0.000088333219243 -0.003752114000403 0.000000000000000
0.000090777269403 -0.003679994783701 0.000000000000000
0.000090777269403 -0.003679994783701 0.000000000000000
0.000093537379801 -0.003606800814199 0.000000000000000
0.000102981742194 -0.003534190672900 0.000000000000000
0.000102981742194 -0.003534190672900 0.000000000000000
0.000109378306771 -0.003463827344989 0.000000000000000
0.000090652583934 -0.003415788858894 0.000000000000000
0.000114819184619 -0.003378665149362 0.000000000000000
0.000114419325978 -0.003301491832859 0.000000000000000
0.000125232359283 -0.003218858581006 0.000000000000000
0.000125232359283 -0.003218858581006 0.000000000000000
0.000126673976368 -0.003134836604833 0.000000000000000
0.000124338586619 -0.003045989114748 0.000000000000000
0.000124338586619 -0.003045989114748 0.000000000000000
0.000127910526560 -0.002944384386569 0.000000000000000
0.000133205688654 -0.002860109486526 0.000000000000000
0.000133205688654 -0.002860109486526 0.000000000000000
0.000136570890464 -0.002750828808964 0.000000000000000
0.000112392748722 -0.002713753550845 0.000000000000000
0.000145762789056 -0.002652123924082 0.000000000000000
0.000154519349621 -0.002551553058064 0.000000000000000
0.000124906129779 -0.002493180204509 0.000000000000000
0.000150636534567 -0.002449101263678 0.000000000000000
0.000158648388101 -0.002345378834045 0.000000000000000
0.000130261598982 -0.002299450200954 0.000000000000000
0.000162350644982 -0.002226970960451 0.000000000000000
0.000039304411655 -0.002107264474848 0.000000000000000
0.000167549397178 -0.002122203815745 0.000000000000000
0.000169762620480 -0.001996393860345 0.000000000000000
0.000165273424397 -0.001883689775942 0.000000000000000
0.000165273424397 -0.001883689775942 0.000000000000000
0.000173652369700 -0.001766802197973 0.000000000000000
0.000175707908856 -0.001633887056556 0.000000000000000
0.000175707908856 -0.001633887056556 0.000000000000000
0.000141694486744 -0.001537392427709 0.000000000000000
0.000139465645844 -0.001397563065179 0.000000000000000
0.000139465645844 -0.001397563065179 0.000000000000000
0.000174490287801 -0.001301667844420 0.000000000000000
0.000133498477440 -0.001188229160208 0.000000000000000
0.000163300709342 -0.001156103582553 0.000000000000000
0.000169686374307 -0.001030350802449 0.000000000000000
0.000123779449152 -0.000953919659254 0.000000000000000
0.000166146308310 -0.000902664355912 0.000000000000000
0.000180119392811 -0.000761570103433 0.000000000000000
0.000041747382037 -0.000782240291345 0.000000000000000
0.000156135453246 -0.000661296666553 0.000000000000000
0.000150218949850 -0.000510502236791 0.000000000000000
0.000078368125984 -0.000451661839559 0.000000000000000
0.000176701948464 -0.000410477675895 0.000000000000000
0.000163519373452 -0.000261504130481 0.000000000000000
0.000124120898921 -0.000203197910211 0.000000000000000
0.000158890908703 -0.000149042091402 0.000000000000000
0.000119070982098 -0.000041982640145 0.000000000000000
0.000129052522187 0.000045716036854 0.000000000000000
0.000168988791866 0.000125616178327 0.000000000000000
0.000100182798554 0.000100728863442 0.000000000000000
0.000101126993762 0.000197011398196 0.000000000000000
0.000119808634673 0.000247913885475 0.000000000000000
0.000119456990503 0.000330036457822 0.000000000000000
0.000158624274247 0.000380572432520 0.000000000000000
0.000169372340044 0.000371090866983 0.000000000000000
0.000137309379962 0.000442321545929 0.000000000000000
0.000131476689566 0.000531183342060 0.000000000000000
0.000121762116186 0.000576420975802 0.000000000000000
0.000121762116186 0.000576420975802 0.000000000000000
0.000122735849164 0.000662952364788 0.000000000000000
0.000087241117445 0.000703625370264 0.000000000000000
0.000084743752349 0.000772129724804 0.000000000000000
0.000083606898430 0.000842450513566 0.000000000000000
0.000083606898430 0.000842450513566 0.000000000000000
0.000080962609003 0.000917339477658 0.000000000000000
0.000074842478251 0.000996027167802 0.000000000000000
0.000132230250745 0.000981211863933 0.000000000000000
0.000081074556605 0.001037993759513 0.000000000000000
0.000105469927153 0.001091664600880 0.000000000000000
0.000104852913398 0.001167768747680 0.000000000000000
0.000083580617450 0.001151736762253 0.000000000000000
0.000111975460553 0.001201716212588 0.000000000000000
0.000066069841502 0.001245376033285 0.000000000000000
0.000065249911935 0.001313080782771 0.000000000000000
0.000078993544618 0.001337661547732 0.000000000000000
0.000060238821398 0.001370524453421 0.000000000000000