# vtk DataFile Version 2.0
B_vector
ASCII
DATASET STRUCTURED_POINTS
DIMENSIONS 257 257 1
ORIGIN 0.000000 0.000000 0.000000
SPACING 8.000000 8.000000 1
CELL_DATA 65536
VECTORS B float
-0.000098338519930 -0.000096810317751 0.000000000000000
-0.000057675956318 -0.000220191471804 0.000000000000000
-0.000117102527506 -0.000311489797181 0.000000000000000
-0.000106519841800 -0.000519687623397 0.000000000000000
-0.000067002824812 -0.000573599807662 0.000000000000000
-0.000126820218819 -0.000727601886499 0.000000000000000
-0.000121653253623 -0.000925686179503 0.000000000000000
-0.000059504008880 -0.001030997350352 0.000000000000000
-0.000115008221124 -0.001129249617476 0.000000000000000
-0.000106001400751 -0.001342415686933 0.000000000000000
-0.000043193157521 -0.001416172345209 0.000000000000000
-0.000112563263272 -0.001533896936794 0.000000000000000
-0.000043484511963 -0.001628305597559 0.000000000000000
-0.000046893372229 -0.001828045621867 0.000000000000000
-0.000109015131210 -0.001929565506015 0.000000000000000
-0.000051461903880 -0.002022967682331 0.000000000000000
-0.000109851356774 -0.002122560334482 0.000000000000000
-0.000110060562476 -0.002313539910083 0.000000000000000
-0.000058889485778 -0.002402440706107 0.000000000000000
-0.000111706240044 -0.002500035589405 0.000000000000000
-0.000114493798438 -0.002684485575396 0.000000000000000
-0.000072150324229 -0.002769739265253 0.000000000000000
-0.000117610500306 -0.002862955695139 0.000000000000000
-0.000099577317941 -0.003037162151001 0.000000000000000
-0.000049842517231 -0.003123305352739 0.000000000000000
-0.000099792750847 -0.003209825392847 0.000000000000000
-0.000096343894188 -0.003379685509278 0.000000000000000
-0.000047138458498 -0.003464906254217 0.000000000000000
-0.000092381981576 -0.003543990286086 0.000000000000000
-0.000089035168851 -0.003701077252710 0.000000000000000
-0.000043534508890 -0.003779166570620 0.000000000000000
-0.000087443473656 -0.003854436577719 0.000000000000000
-0.000086390901238 -0.004005369130447 0.000000000000000
-0.000047227342568 -0.004073204742331 0.000000000000000
-0.000085097935327 -0.004150212239403 0.000000000000000
-0.000042925655747 -0.004229078389110 0.000000000000000
-0.000033710519235 -0.004361996654220 0.000000000000000
-0.000072678019833 -0.004422475946432 0.000000000000000
-0.000032350011744 -0.004488281552950 0.000000000000000
-0.000070896655998 -0.004551153177972 0.000000000000000
-0.000068464541625 -0.004674149929333 0.000000000000000
-0.000032639686927 -0.004735203072616 0.000000000000000
-0.000066065367404 -0.004792227920885 0.000000000000000
-0.000063150529252 -0.004904576556741 0.000000000000000
-0.000030853373146 -0.004960516872061 0.000000000000000
-0.000060160364775 -0.005011343743769 0.000000000000000
-0.000057399025900 -0.005113114839307 0.000000000000000
-0.000028161722674 -0.005163763352518 0.000000000000000
-0.000053999214267 -0.005207814391838 0.000000000000000
-0.000049869171944 -0.005298101640127 0.000000000000000
-0.000023515853603 -0.005343751340064 0.000000000000000
-0.000047340958996 -0.005383158529583 0.000000000000000
-0.000043488267429 -0.005463470973080 0.000000000000000
-0.000019948503616 -0.005502669333289 0.000000000000000
-0.000040630973043 -0.005537525327147 0.000000000000000
-0.000037695727548 -0.005606204992019 0.000000000000000
-0.000017595321820 -0.005640231106229 0.000000000000000
-0.000034531573311 -0.005669382530289 0.000000000000000
-0.000016451624085 -0.005700171979545 0.000000000000000
-0.000016192565106 -0.005753875761482 0.000000000000000
-0.000027769279536 -0.005783955471212 0.000000000000000
-0.000031659132017 -0.005834129328801 0.000000000000000
-0.000023677099254 -0.005826106567164 0.000000000000000
-0.000021497721257 -0.005874743697525 0.000000000000000
-0.000009383362403 -0.005893553110772 0.000000000000000
-0.000020499178778 -0.005912160008253 0.000000000000000
-0.000018364848478 -0.005946289918132 0.000000000000000
-0.000008451708904 -0.005963085887545 0.000000000000000
-0.000016092725920 -0.005976322302173 0.000000000000000
-0.000013853687390 -0.006001683485923 0.000000000000000
-0.000006715316974 -0.006015477983649 0.000000000000000
-0.000011330313718 -0.006023106207228 0.000000000000000
-0.000008760512415 -0.006040261887971 0.000000000000000
-0.000004196246931 -0.006049806333846 0.000000000000000
-0.000006786919393 -0.006054116973764 0.000000000000000
-0.000004727009685 -0.006064295712457 0.000000000000000
-0.000001743300245 -0.006069239424740 0.000000000000000
-0.000002842494127 -0.006071030302109 0.000000000000000
-0.000001010401060 -0.006074462102431 0.000000000000000
-0.000000113671510 -0.006075977414012 0.000000000000000
0.000000546864172 -0.006074857144736 0.000000000000000
0.000000701308202 -0.006075112967268 0.000000000000000
0.000001680909256 -0.006071440518854 0.000000000000000
0.000003850347105 -0.006067193282193 0.000000000000000
0.000002144844084 -0.006064093551266 0.000000000000000
0.000005021240756 -0.006059634298849 0.000000000000000
0.000005997390886 -0.006049757262230 0.000000000000000
0.000002990174877 -0.006044817222579 0.000000000000000
0.000007294132204 -0.006037785234285 0.000000000000000
0.000008404703261 -0.006023883794185 0.000000000000000
0.000004386706400 -0.006017157523214 0.000000000000000
0.000009464885547 -0.006008435668150 0.000000000000000
0.000010122248645 -0.005991567805170 0.000000000000000
0.000005065368823 -0.005982557494482 0.000000000000000
0.000010761108361 -0.005973032276367 0.000000000000000
0.000012169349456 -0.005953375243928 0.000000000000000
0.000006507082610 -0.005942928342019 0.000000000000000
0.000012565728887 -0.005934095422275 0.000000000000000
0.000007112271406 -0.005917466854217 0.000000000000000
0.000004996280467 -0.005903306074531 0.000000000000000
0.000012761525149 -0.005890418154259 0.000000000000000
0.000004890690991 -0.005876078791026 0.000000000000000
0.000003985463060 -0.005860285051031 0.000000000000000
0.000011205392164 -0.005845216547070 0.000000000000000
0.000012520803891 -0.005822993274079 0.000000000000000
0.000006121428554 -0.005814951684964 0.000000000000000
0.000013174645157 -0.005800156270918 0.000000000000000
0.000006216425822 -0.005790375058502 0.000000000000000
0.000013208572935 -0.005778264304438 0.000000000000000
0.000012842049167 -0.005755464756239 0.000000000000000
0.000007162313273 -0.005746039735961 0.000000000000000
0.000013368677520 -0.005733823939302 0.000000000000000
0.000012155867335 -0.005712969469615 0.000000000000000
0.000005682571673 -0.005700835823895 0.000000000000000
0.000011505766617 -0.005691480047154 0.000000000000000
0.000011360880422 -0.005671211597894 0.000000000000000
0.000005461218985 -0.005661143749570 0.000000000000000
0.000010949254588 -0.005651937931968 0.000000000000000
0.000010463648411 -0.005633551902938 0.000000000000000
0.000005165700977 -0.005623646219474 0.000000000000000
0.000009974227503 -0.005615664280846 0.000000000000000
0.000009484954248 -0.005598617940027 0.000000000000000
0.000004915958001 -0.005590704206378 0.000000000000000
0.000009218339283 -0.005582968078032 0.000000000000000
0.000008291269053 -0.005568021756786 0.000000000000000
0.000003937975757 -0.005560481631602 0.000000000000000
0.000007802627019 -0.005553987979674 0.000000000000000
0.000003509215457 -0.005546774980476 0.000000000000000
0.000003261575082 -0.005534452254685 0.000000000000000
0.000006597367524 -0.005528745516407 0.000000000000000
0.000003162206543 -0.005522885972084 0.000000000000000
0.000006193204147 -0.005517619439342 0.000000000000000
0.000005699657989 -0.005507328955045 0.000000000000000
0.000002703620359 -0.005502139226925 0.000000000000000
0.000005115086924 -0.005497943197536 0.000000000000000
0.000004829205675 -0.005489225793255 0.000000000000000
0.000002550710656 -0.005485490227832 0.000000000000000
0.000004679750627 -0.005481474415646 0.000000000000000
0.000003980299111 -0.005474359663986 0.000000000000000
0.000001817668868 -0.005470271953886 0.000000000000000
0.000003626313243 -0.005467486592032 0.000000000000000
0.000003458669772 -0.005461166562716 0.000000000000000
0.000001648943159 -0.005457985663617 0.000000000000000
0.000003341700815 -0.005455290579195 0.000000000000000
0.000003219140333 -0.005449625655672 0.000000000000000
0.000001662070961 -0.005446584597398 0.000000000000000
0.000003236569536 -0.005443940715868 0.000000000000000
0.000003344595699 -0.005438311912775 0.000000000000000
0.000001715781167 -0.005435267095352 0.000000000000000
0.000002900033069 -0.005432054292157 0.000000000000000
0.000003281880841 -0.005426184985824 0.000000000000000
0.000001295603897 -0.005422747404492 0.000000000000000
0.000003727150146 -0.005418659132565 0.000000000000000
0.000001875990473 -0.005416134512329 0.000000000000000
0.000004689038624 -0.005411272908875 0.000000000000000
0.000005275108481 -0.005402582753426 0.000000000000000
0.000002872411381 -0.005398518031644 0.000000000000000
0.000005803338352 -0.005392505660381 0.000000000000000
0.000006633875088 -0.005381315985896 0.000000000000000
0.000004514360425 -0.005378311553799 0.000000000000000
0.000008055944531 -0.005368356055167 0.000000000000000
0.000009348306872 -0.005353817376078 0.000000000000000
0.000005044764775 -0.005347156895043 0.000000000000000
0.000010225316871 -0.005337588474898 0.000000000000000
0.000010972468215 -0.005319005577325 0.000000000000000
0.000004053144740 -0.005309404687057 0.000000000000000
0.000012390221628 -0.005297469156455 0.000000000000000
0.000014042999736 -0.005273229399551 0.000000000000000
0.000007239841093 -0.005262029270987 0.000000000000000
0.000016022083743 -0.005246525958493 0.000000000000000
0.000018273005432 -0.005216975594185 0.000000000000000
0.000011197380464 -0.005204688375290 0.000000000000000
0.000021457262646 -0.005183841118668 0.000000000000000
0.000025378446369 -0.005148151858083 0.000000000000000
0.000025378446369 -0.005148151858083 0.000000000000000
0.000025006320650 -0.005108487728415 0.000000000000000
0.000014587583059 -0.005088988493184 0.000000000000000
0.000027428487700 -0.005065427573337 0.000000000000000
0.000028286458431 -0.005018314650795 0.000000000000000
0.000014778621500 -0.004994261679676 0.000000000000000
0.000030262149865 -0.004967540738864 0.000000000000000
0.000032305325461 -0.004913230157505 0.000000000000000
0.000016587640794 -0.004886155598101 0.000000000000000
0.000034250677531 -0.004855576712409 0.000000000000000
0.000036935308237 -0.004792138082313 0.000000000000000
0.000021232785505 -0.004767521477589 0.000000000000000
0.000039489063865 -0.004727296217795 0.000000000000000
0.000040459683490 -0.004657087996476 0.000000000000000
0.000016132182145 -0.004624560474142 0.000000000000000
0.000041134815169 -0.004583971105096 0.000000000000000
0.000043463649013 -0.004507180145698 0.000000000000000
0.000019490314313 -0.004471264869561 0.000000000000000
0.000046093679387 -0.004426906848734 0.000000000000000
0.000049134484354 -0.004343443061509 0.000000000000000
0.000025682197377 -0.004303450000128 0.000000000000000
0.000052029268177 -0.004257088849767 0.000000000000000
0.000054218282753 -0.004166618690669 0.000000000000000
0.000030485488766 -0.004123599936196 0.000000000000000
0.000058214580189 -0.004073422210415 0.000000000000000
0.000030841179514 -0.004020421810633 0.000000000000000
0.000055818373128 -0.003983593295063 0.000000000000000
0.000049595188222 -0.003884988148972 0.000000000000000
0.000022462556228 -0.003852678556062 0.000000000000000
0.000057200057160 -0.003780586461329 0.000000000000000
0.000059525767103 -0.003682791360771 0.000000000000000
0.000027182499352 -0.003628165505933 0.000000000000000
0.000058108617342 -0.003578503694176 0.000000000000000
0.000058513207137 -0.003473621401015 0.000000000000000
0.000027951502300 -0.003425013641269 0.000000000000000
0.000060457797732 -0.003368680885289 0.000000000000000
0.000062680374435 -0.003259047667688 0.000000000000000
0.000035085524698 -0.003215925731120 0.000000000000000
0.000065497079711 -0.003150772668410 0.000000000000000
0.000064645320195 -0.003042921210564 0.000000000000000
0.000028315369211 -0.002982928169216 0.000000000000000
0.000061378018761 -0.002931875304493 0.000000000000000
0.000061814387842 -0.002820383757813 0.000000000000000
0.000029882345938 -0.002768646371875 0.000000000000000
0.000064294354762 -0.002709799164191 0.000000000000000
0.000064427137008 -0.002597519729932 0.000000000000000
0.000033899412711 -0.002545484719687 0.000000000000000
0.000066179222848 -0.002484973044807 0.000000000000000
0.000036418068461 -0.002433987022545 0.000000000000000
0.000069713130379 -0.002371909495877 0.000000000000000
0.000067631883996 -0.002264914602075 0.000000000000000
0.000034659958242 -0.002175758454495 0.000000000000000
0.000021657229031 -0.002104936972051 0.000000000000000
0.000062858423982 -0.002037656724165 0.000000000000000
0.000023864134472 -0.001971514729043 0.000000000000000
0.000057146366770 -0.001925124516508 0.000000000000000
0.000067182613817 -0.001811355382713 0.000000000000000
0.000034078568056 -0.001760487671057 0.000000000000000
0.000066396955551 -0.001701958924013 0.000000000000000
0.000064793974742 -0.001589476121256 0.000000000000000
0.000032212044312 -0.001533288910444 0.000000000000000
0.000063533280262 -0.001479008392864 0.000000000000000
0.000062169868910 -0.001369737678030 0.000000000000000
0.000029528392917 -0.001314452660601 0.000000000000000
0.000063337670533 -0.001257633321713 0.000000000000000
0.000060392784976 -0.001147720189008 0.000000000000000
0.000028306774763 -0.001096252902099 0.000000000000000
0.000061027443638 -0.001037719471366 0.000000000000000
0.000060809072612 -0.000925360755730 0.000000000000000
0.000036794434256 -0.000892576758433 0.000000000000000
0.000067823896861 -0.000816325149188 0.000000000000000
0.000035649475238 -0.000763535491086 0.000000000000000
0.000064767347853 -0.000709799324376 0.000000000000000
0.000064198221376 -0.000597524397421 0.000000000000000
0.000035380292177 -0.000551433358795 0.000000000000000
0.000066292038095 -0.000488873460354 0.000000000000000
0.000062894701131 -0.000381856680790 0.000000000000000
0.000026936573650 -0.000321050849446 0.000000000000000
0.000059794606527 -0.000271663899308 0.000000000000000
0.000056511268334 -0.000165645750852 0.000000000000000
0.000026902762812 -0.000117247398221 0.000000000000000
0.000052267038883 -0.000052627925504 0.000000000000000
-0.000215764708269 -0.000053829349749 0.000000000000000
-0.000241446697562 -0.000259286621099 0.000000000000000
-0.000278598296582 -0.000433776898826 0.000000000000000
-0.000242323915054 -0.000403513764192 0.000000000000000
-0.000231451353784 -0.000625282294382 0.000000000000000
-0.000302933987560 -0.000801781654361 0.000000000000000
-0.000302933987560 -0.000801781654361 0.000000000000000
-0.000289856121318 -0.001024614377021 0.000000000000000
-0.000231082608827 -0.001130894680196 0.000000000000000
-0.000270993577397 -0.001207123502599 0.000000000000000
-0.000266529967867 -0.001412720446670 0.000000000000000
-0.000186095643977 -0.001519809185587 0.000000000000000
-0.000260234332308 -0.001630729838715 0.000000000000000
-0.000262227965065 -0.001837779015812 0.000000000000000
-0.000205779923364 -0.001914326781872 0.000000000000000
-0.000270319801919 -0.002031083220812 0.000000000000000
-0.000273282803624 -0.002221792308263 0.000000000000000
-0.000273282803624 -0.002221792308263 0.000000000000000
-0.000278105123899 -0.002414004522505 0.000000000000000
-0.000286664177177 -0.002602201553885 0.000000000000000
-0.000065552063911 -0.002586961217430 0.000000000000000
-0.000072150324229 -0.002769739265253 0.000000000000000
-0.000066942850062 -0.002980637594556 0.000000000000000
-0.000281806087239 -0.002931179088416 0.000000000000000
-0.000252667776942 -0.003123301599239 0.000000000000000
-0.000239212814475 -0.003297739582430 0.000000000000000
-0.000239212814475 -0.003297739582430 0.000000000000000
-0.000234689552095 -0.003463849360237 0.000000000000000
-0.000232343621028 -0.003624692580889 0.000000000000000
-0.000232343621028 -0.003624692580889 0.000000000000000
-0.000219734506188 -0.003778564320992 0.000000000000000
-0.000174692570978 -0.003875366550030 0.000000000000000
-0.000208701910463 -0.003931896625375 0.000000000000000
-0.000200513240761 -0.004090139409058 0.000000000000000
-0.000190440392976 -0.004206287231769 0.000000000000000
-0.000190440392976 -0.004206287231769 0.000000000000000
-0.000176518341804 -0.004359241493717 0.000000000000000
-0.000131134133161 -0.004423074188134 0.000000000000000
-0.000174052342099 -0.004492826726591 0.000000000000000
-0.000171235618762 -0.004616628786639 0.000000000000000
-0.000132325773535 -0.004676886236652 0.000000000000000
-0.000166663845403 -0.004738243633416 0.000000000000000
-0.000161728449104 -0.004851782612845 0.000000000000000
-0.000161728449104 -0.004851782612845 0.000000000000000
-0.000154451449127 -0.004960634882766 0.000000000000000
-0.000146958581232 -0.005064536934596 0.000000000000000
-0.000146958581232 -0.005064536934596 0.000000000000000
-0.000142778440524 -0.005166872140871 0.000000000000000
-0.000133445531852 -0.005255483372757 0.000000000000000
-0.000133445531852 -0.005255483372757 0.000000000000000
-0.000117422921431 -0.005340091201437 0.000000000000000
-0.000089476493424 -0.005405776493834 0.000000000000000
-0.000106273721049 -0.005426850640094 0.000000000000000
-0.000105683651334 -0.005503535864310 0.000000000000000
-0.000079334647195 -0.005550400364517 0.000000000000000
-0.000095367713932 -0.005574554053474 0.000000000000000
-0.000093389813278 -0.005640962520159 0.000000000000000
-0.000071567554725 -0.005681880874510 0.000000000000000
-0.000082495793016 -0.005700225697183 0.000000000000000
-0.000073899559886 -0.005752977094108 0.000000000000000
-0.000076679671211 -0.005807975289126 0.000000000000000
-0.000031659132017 -0.005834129328801 0.000000000000000
-0.000040511224464 -0.005826639086706 0.000000000000000
-0.000040951998571 -0.005874714844586 0.000000000000000
-0.000053096065103 -0.005895720731866 0.000000000000000
-0.000047950497497 -0.005931329004567 0.000000000000000
-0.000047950497497 -0.005931329004567 0.000000000000000
-0.000042584095308 -0.005963743003774 0.000000000000000
-0.000037566914765 -0.005992058996018 0.000000000000000
-0.000037566914765 -0.005992058996018 0.000000000000000
-0.000032126850908 -0.006015701798664 0.000000000000000
-0.000025871097398 -0.006034792454459 0.000000000000000
-0.000025871097398 -0.006034792454459 0.000000000000000
-0.000018405796467 -0.006049209723218 0.000000000000000
-0.000013870320624 -0.006061796688377 0.000000000000000
-0.000013048518178 -0.006060808452441 0.000000000000000
-0.000008662958980 -0.006069177011526 0.000000000000000
-0.000004805124787 -0.006074417398645 0.000000000000000
-0.000004769808149 -0.006074352597200 0.000000000000000
-0.000000489598800 -0.006075974794159 0.000000000000000
0.000001599221124 -0.006078817822257 0.000000000000000
0.000003386717760 -0.006075092277118 0.000000000000000
0.000006528410577 -0.006070977919023 0.000000000000000
0.000008870760000 -0.006073331964697 0.000000000000000
0.000010586334355 -0.006065236747257 0.000000000000000
0.000012969881495 -0.006055431847022 0.000000000000000
0.000010646047411 -0.006052286585682 0.000000000000000
0.000015987631570 -0.006044079893333 0.000000000000000
0.000019145135469 -0.006031510265558 0.000000000000000
0.000019145135469 -0.006031510265558 0.000000000000000
0.000022037890106 -0.006017145505328 0.000000000000000
0.000024418627470 -0.006000491591510 0.000000000000000
0.000024418627470 -0.006000491591510 0.000000000000000
0.000026235564032 -0.005982856501436 0.000000000000000
0.000028486272912 -0.005963410646494 0.000000000000000
0.000028486272912 -0.005963410646494 0.000000000000000
0.000031522571677 -0.005940673515982 0.000000000000000
0.000006507082610 -0.005942928342019 0.000000000000000
0.000020188532315 -0.005922486359009 0.000000000000000
0.000025039570391 -0.005899140121176 0.000000000000000
0.000028265433887 -0.005877404958228 0.000000000000000
0.000021965847015 -0.005880764198556 0.000000000000000
0.000023931950500 -0.005857273889730 0.000000000000000
0.000029993064658 -0.005837110234496 0.000000000000000
0.000029993064658 -0.005837110234496 0.000000000000000
0.000031041368898 -0.005813771000968 0.000000000000000
0.000032087973290 -0.005789801774212 0.000000000000000
0.000032087973290 -0.005789801774212 0.000000000000000
0.000031676875388 -0.005766610814709 0.000000000000000
0.000028000224725 -0.005762216834029 0.000000000000000
0.000032349615473 -0.005743870100341 0.000000000000000
0.000028675473200 -0.005724079099708 0.000000000000000
0.000028675473200 -0.005724079099708 0.000000000000000
0.000027639923713 -0.005700345088074 0.000000000000000
0.000027941410847 -0.005680725946047 0.000000000000000
0.000027941410847 -0.005680725946047 0.000000000000000
0.000027848293687 -0.005661061883602 0.000000000000000
0.000027014935390 -0.005641835663741 0.000000000000000
0.000027014935390 -0.005641835663741 0.000000000000000
0.000025601932400 -0.005623520525793 0.000000000000000
0.000024517047607 -0.005606542777878 0.000000000000000
0.000024517047607 -0.005606542777878 0.000000000000000
0.000024406188981 -0.005589214954094 0.000000000000000
0.000022010753961 -0.005575506124283 0.000000000000000
0.000022010753961 -0.005575506124283 0.000000000000000
0.000018996757920 -0.005560872486816 0.000000000000000
0.000013128884333 -0.005553240291359 0.000000000000000
0.000017532184611 -0.005546992405212 0.000000000000000
0.000017273942145 -0.005534037691149 0.000000000000000
0.000013104433303 -0.005527871157700 0.000000000000000
0.000016115157384 -0.005522742680466 0.000000000000000
0.000014661454695 -0.005512051066841 0.000000000000000
0.000011431915908 -0.005506636171685 0.000000000000000
0.000013466345836 -0.005502161204293 0.000000000000000
0.000012586121646 -0.005493520148028 0.000000000000000
0.000012586121646 -0.005493520148028 0.000000000000000
0.000011583474816 -0.005484254302886 0.000000000000000
0.000009703002618 -0.005477901619289 0.000000000000000
0.000009703002618 -0.005477901619289 0.000000000000000
0.000008896699420 -0.005470129096765 0.000000000000000
0.000008694546867 -0.005463892891120 0.000000000000000
0.000008694546867 -0.005463892891120 0.000000000000000
0.000008341298784 -0.005458048764045 0.000000000000000
0.000006518914311 -0.005454754408185 0.000000000000000
0.000008241392559 -0.005452000748894 0.000000000000000
0.000008203401241 -0.005446609214897 0.000000000000000
0.000007071551887 -0.005443314374912 0.000000000000000
0.000008617241314 -0.005440903914102 0.000000000000000
0.000007853987403 -0.005436729576576 0.000000000000000
0.000007148961488 -0.005430864191422 0.000000000000000
0.000006015461578 -0.005428084294691 0.000000000000000
0.000008058276336 -0.005421775611459 0.000000000000000
0.000007421617475 -0.005421062753439 0.000000000000000
0.000010582734957 -0.005415353490941 0.000000000000000
0.000012303633850 -0.005407400244673 0.000000000000000
0.000010752358948 -0.005404756578862 0.000000000000000
0.000013426493336 -0.005398616062469 0.000000000000000
0.000015357828738 -0.005388673500959 0.000000000000000
0.000014328391274 -0.005387228717523 0.000000000000000
0.000018020335922 -0.005376795416919 0.000000000000000
0.000021894094947 -0.005364515224652 0.000000000000000
0.000021894094947 -0.005364515224652 0.000000000000000
0.000024154843030 -0.005347864773403 0.000000000000000
0.000023428724445 -0.005331546537321 0.000000000000000
0.000023428724445 -0.005331546537321 0.000000000000000
0.000026980807711 -0.005306681433629 0.000000000000000
0.000023338157019 -0.005299935279436 0.000000000000000
0.000031854990535 -0.005285286758355 0.000000000000000
0.000036840980564 -0.005261165318878 0.000000000000000
0.000042347609426 -0.005233280570080 0.000000000000000
0.000042347609426 -0.005233280570080 0.000000000000000
0.000049155412701 -0.005201136599972 0.000000000000000
0.000014732901863 -0.005171211669424 0.000000000000000
0.000014732901863 -0.005171211669424 0.000000000000000
0.000015673968513 -0.005126112046797 0.000000000000000
0.000055720862569 -0.005109516510168 0.000000000000000
0.000067480074519 -0.005088738467866 0.000000000000000
0.000069299373875 -0.005045026626420 0.000000000000000
0.000069299373875 -0.005045026626420 0.000000000000000
0.000072573155668 -0.004994790330359 0.000000000000000
0.000078011993159 -0.004942252263622 0.000000000000000
0.000078011993159 -0.004942252263622 0.000000000000000
0.000082976276776 -0.004885955619601 0.000000000000000
0.000086797470541 -0.004828231054151 0.000000000000000
0.000086797470541 -0.004828231054151 0.000000000000000
0.000091004503107 -0.004760325501147 0.000000000000000
0.000092353387122 -0.004708107157617 0.000000000000000
0.000092353387122 -0.004708107157617 0.000000000000000
0.000093597166287 -0.004625816541058 0.000000000000000
0.000100150718598 -0.004548264546825 0.000000000000000
0.000100150718598 -0.004548264546825 0.000000000000000
0.000107786238481 -0.004467250070914 0.000000000000000
0.000087504561551 -0.004439138761588 0.000000000000000
0.000117317172445 -0.004385764365413 0.000000000000000
0.000125763723126 -0.004298452240816 0.000000000000000
0.000106262654458 -0.004268936453914 0.000000000000000
0.000134305800106 -0.004212660103086 0.000000000000000
0.000142268497930 -0.004121020442781 0.000000000000000
0.000142268497930 -0.004121020442781 0.000000000000000
0.000148730731281 -0.004018595613310 0.000000000000000
0.000091057817000 -0.003936247113636 0.000000000000000
0.000091057817000 -0.003936247113636 0.000000000000000
0.000099465825716 -0.003831288952450 0.000000000000000
0.000135646472141 -0.003737281080099 0.000000000000000
0.000105272717801 -0.003698906808205 0.000000000000000
0.000143800022241 -0.003633013136008 0.000000000000000
0.000139726752227 -0.003527002309182 0.000000000000000
0.000113837121754 -0.003496645486449 0.000000000000000
0.000150946314555 -0.003416328343459 0.000000000000000
0.000149282978427 -0.003320545649431 0.000000000000000
0.000149282978427 -0.003320545649431 0.000000000000000
0.000148726866600 -0.003199991055546 0.000000000000000
0.000152435319833 -0.003110441991591 0.000000000000000
0.000152435319833 -0.003110441991591 0.000000000000000
0.000146850863804 -0.002987935818348 0.000000000000000
0.000111636002027 -0.002938350574388 0.000000000000000
0.000149354559478 -0.002874042560561 0.000000000000000
0.000155386323670 -0.002762586637775 0.000000000000000
0.000125247595762 -0.002715952637276 0.000000000000000
0.000159360155944 -0.002653173994381 0.000000000000000
0.000163440956524 -0.002542522196980 0.000000000000000
0.000133865481383 -0.002493752127273 0.000000000000000
0.000168500057596 -0.002428901003811 0.000000000000000
0.000179142588682 -0.002306736899012 0.000000000000000
0.000179142588682 -0.002306736899012 0.000000000000000
0.000098966630833 -0.002203091458679 0.000000000000000
0.000121971971206 -0.002079915221045 0.000000000000000
0.000138815589094 -0.002091075795749 0.000000000000000
0.000122198306234 -0.001989929174629 0.000000000000000
0.000116928565766 -0.001868937249747 0.000000000000000
0.000159573805156 -0.001894770356813 0.000000000000000
0.000163945902810 -0.001766040288930 0.000000000000000
0.000162120255717 -0.001645728874244 0.000000000000000
0.000162120255717 -0.001645728874244 0.000000000000000
0.000162350711469 -0.001534362014381 0.000000000000000
0.000159479644427 -0.001427025411801 0.000000000000000
0.000159479644427 -0.001427025411801 0.000000000000000
0.000147240953721 -0.001311568735810 0.000000000000000
0.000108419794605 -0.001266848648655 0.000000000000000
0.000149569412130 -0.001203045584488 0.000000000000000
0.000153592644682 -0.001094671251166 0.000000000000000
0.000143733726530 -0.000990210004712 0.000000000000000
0.000143733726530 -0.000990210004712 0.000000000000000
0.000140556104375 -0.000875322063058 0.000000000000000
0.000160713152157 -0.000775268589907 0.000000000000000
0.000160713152157 -0.000775268589907 0.000000000000000
0.000153116851810 -0.000659184689420 0.000000000000000
0.000122970540964 -0.000602452631692 0.000000000000000
0.000151649461274 -0.000536604244690 0.000000000000000
0.000149854055703 -0.000446371140001 0.000000000000000
0.000149854055703 -0.000446371140001 0.000000000000000
0.000144607958591 -0.000321547430039 0.000000000000000
0.000148789745286 -0.000213046691365 0.000000000000000
0.000148789745286 -0.000213046691365 0.000000000000000
0.000132968939736 -0.000128409513185 0.000000000000000
0.000117515516244 -0.000028121060932 0.000000000000000
-0.000317001452021 -0.000114257779231 0.000000000000000
-0.000427620777727 -0.000280274517529 0.000000000000000
-0.000278598296582 -0.000433776898826 0.000000000000000
-0.000278598296582 -0.000433776898826 0.000000000000000
-0.000309515699463 -0.000573070622492 0.000000000000000
-0.000280514848942 -0.000775314684207 0.000000000000000
-0.000234875839935 -0.000935379354619 0.000000000000000
-0.000234875839935 -0.000935379354619 0.000000000000000
-0.000231082608827 -0.001130894680196 0.000000000000000
-0.000410809471398 -0.001308197605209 0.000000000000000
-0.000333010380995 -0.001420864288624 0.000000000000000
-0.000406442777662 -0.001524093766345 0.000000000000000
-0.000412570506364 -0.001732790794685 0.000000000000000
-0.000412570506364 -0.001732790794685 0.000000000000000
-0.000424734224755 -0.001931672151708 0.000000000000000
-0.000215380627433 -0.002113689248774 0.000000000000000
-0.000215380627433 -0.002113689248774 0.000000000000000
-0.000220499863622 -0.002304531704034 0.000000000000000
-0.000230577316999 -0.002487902220352 0.000000000000000
-0.000230577316999 -0.002487902220352 0.000000000000000
-0.000243441987803 -0.002673584646450 0.000000000000000
-0.000298488158176 -0.002789008820753 0.000000000000000
-0.000249966429367 -0.002869245124058 0.000000000000000
-0.000223723922175 -0.003079230847416 0.000000000000000
-0.000223723922175 -0.003079230847416 0.000000000000000
-0.000196918823092 -0.003228101485933 0.000000000000000