# vtk DataFile Version 2.0
B_vector
ASCII
DATASET STRUCTURED_POINTS
DIMENSIONS 33 33 1
ORIGIN 0.000000 0.000000 0.000000
SPACING 8.000000 8.000000 1
CELL_DATA 1024
VECTORS B float
-0.006186695769429 -0.006118383258581 0.000000000000000
-0.006974812597036 -0.012627761811018 0.000000000000000
-0.007003212347627 -0.021367849782109 0.000000000000000
-0.007007317617536 -0.030195187777281 0.000000000000000
-0.006858594715595 -0.039443835616112 0.000000000000000
-0.006787631660700 -0.047382231801748 0.000000000000000
-0.005980832502246 -0.056662835180759 0.000000000000000
-0.005468472838402 -0.063256382942200 0.000000000000000
-0.004155665636063 -0.068723201751709 0.000000000000000
-0.002979669719934 -0.073978438973427 0.000000000000000
-0.000660276040435 -0.075252205133438 0.000000000000000
0.000463711097836 -0.073909014463425 0.000000000000000
0.003025706857443 -0.071496151387691 0.000000000000000
0.005214739590883 -0.065818861126900 0.000000000000000
0.006865032017231 -0.056665062904358 0.000000000000000
0.009940497577190 -0.047917935997248 0.000000000000000
0.011825781315565 -0.036797374486923 0.000000000000000
0.012464826926589 -0.025498105213046 0.000000000000000
0.012424027547240 -0.011021843180060 0.000000000000000
0.012426810339093 0.000940350815654 0.000000000000000
0.011262791231275 0.018548218533397 0.000000000000000
0.010306183248758 0.032711565494537 0.000000000000000
0.008309824392200 0.043563991785049 0.000000000000000
0.005724985152483 0.053413160145283 0.000000000000000
0.002983227372169 0.061035692691803 0.000000000000000
-0.000185064971447 0.064529567956924 0.000000000000000
-0.005018947646022 0.062705695629120 0.000000000000000
-0.007709866389632 0.056772597134113 0.000000000000000
-0.010606868192554 0.046307034790516 0.000000000000000
-0.011162580922246 0.033347658813000 0.000000000000000
-0.012548923492432 0.018841819837689 0.000000000000000
-0.013692308217287 0.004781041294336 0.000000000000000
-0.014604076743126 -0.006117399781942 0.000000000000000
-0.015058074146509 -0.013717716559768 0.000000000000000
-0.014616584405303 -0.021535187959671 0.000000000000000
-0.015021475031972 -0.029742991551757 0.000000000000000
-0.015293994918466 -0.039453160017729 0.000000000000000
-0.014702308923006 -0.048058189451694 0.000000000000000
-0.013445217162371 -0.056644178926945 0.000000000000000
-0.011548584327102 -0.064106464385986 0.000000000000000
-0.008785907179117 -0.070599645376205 0.000000000000000
-0.005664441734552 -0.076674237847328 0.000000000000000
-0.001496708020568 -0.078801065683365 0.000000000000000
0.002262191846967 -0.078267864882946 0.000000000000000
0.006814246997237 -0.075579583644867 0.000000000000000
0.011745842173696 -0.070116788148880 0.000000000000000
0.015902293846011 -0.060257114470005 0.000000000000000
0.020099129527807 -0.049080349504948 0.000000000000000
0.023500591516495 -0.037450358271599 0.000000000000000
0.025793276727200 -0.026080163195729 0.000000000000000
0.028004307299852 -0.011383103206754 0.000000000000000
0.028422094881535 0.001362854614854 0.000000000000000
0.027207091450691 0.018867155537009 0.000000000000000
0.023889705538750 0.034822523593903 0.000000000000000
0.019457174465060 0.047158434987068 0.000000000000000
0.014308817684650 0.057182393968105 0.000000000000000
0.007698824629188 0.064574480056763 0.000000000000000
0.000064926221967 0.069376431405544 0.000000000000000
-0.008251722902060 0.069672912359238 0.000000000000000
-0.015412924811244 0.062577597796917 0.000000000000000
-0.021447928622365 0.051843971014023 0.000000000000000
-0.025755884125829 0.037610203027725 0.000000000000000
-0.029075600206852 0.021147331222892 0.000000000000000
-0.030816549435258 0.004268551245332 0.000000000000000
-0.024116709828377 -0.005460903048515 0.000000000000000
-0.024141810834408 -0.013704670593143 0.000000000000000
-0.023168575018644 -0.021599603816867 0.000000000000000
-0.022934447973967 -0.030150540173054 0.000000000000000
-0.023750597611070 -0.039326258003712 0.000000000000000
-0.023064319044352 -0.048512361943722 0.000000000000000
-0.021425507962704 -0.058261573314667 0.000000000000000
-0.018980877473950 -0.066262774169445 0.000000000000000
-0.016007700935006 -0.072190359234810 0.000000000000000
-0.011338191106915 -0.078421525657177 0.000000000000000
-0.004935631528497 -0.083333753049374 0.000000000000000
0.001447577029467 -0.083573207259178 0.000000000000000
0.010077724233270 -0.080801755189896 0.000000000000000
0.017407804727554 -0.075158312916756 0.000000000000000
0.025091186165810 -0.066825330257416 0.000000000000000
0.031204223632812 -0.055486530065536 0.000000000000000
0.035803947597742 -0.041418414562941 0.000000000000000
0.040186513215303 -0.027320791035891 0.000000000000000
0.042156208306551 -0.012136993929744 0.000000000000000
0.043686922639608 0.002665404230356 0.000000000000000
0.043584521859884 0.020616171881557 0.000000000000000
0.039786323904991 0.037609554827213 0.000000000000000
0.034115381538868 0.052814096212387 0.000000000000000
0.025953892618418 0.065244443714619 0.000000000000000
0.014387741684914 0.075088374316692 0.000000000000000
0.001169074326754 0.080490857362747 0.000000000000000
-0.013911146670580 0.078940935432911 0.000000000000000
-0.025201778858900 0.071678295731544 0.000000000000000
-0.034861162304878 0.059490673243999 0.000000000000000
-0.042865376919508 0.041846007108688 0.000000000000000
-0.047830946743488 0.023206910118461 0.000000000000000
-0.048379894345999 0.004431413486600 0.000000000000000
-0.032286286354065 -0.004998929798603 0.000000000000000
-0.032851610332727 -0.013044247403741 0.000000000000000
-0.031927697360516 -0.020793834701180 0.000000000000000
-0.031694546341896 -0.029063750058413 0.000000000000000
-0.032099097967148 -0.039247632026672 0.000000000000000
-0.030547149479389 -0.048701897263527 0.000000000000000
-0.029387768357992 -0.058933973312378 0.000000000000000
-0.026188280433416 -0.068440206348896 0.000000000000000
-0.022069800645113 -0.077127322554588 0.000000000000000
-0.016107872128487 -0.083346314728260 0.000000000000000
-0.007365904748440 -0.090241916477680 0.000000000000000
0.001852741464972 -0.091883994638920 0.000000000000000
0.014000451192260 -0.089580975472927 0.000000000000000
0.025963209569454 -0.084111578762531 0.000000000000000
0.037969712167978 -0.076215870678425 0.000000000000000
0.045471645891666 -0.062623545527458 0.000000000000000
0.050479512661695 -0.047262102365494 0.000000000000000
0.055030860006809 -0.033476471900940 0.000000000000000
0.057235755026340 -0.016097150743008 0.000000000000000
0.059908173978329 0.000938896089792 0.000000000000000
0.062678761780262 0.018610781058669 0.000000000000000
0.057688690721989 0.039659626781940 0.000000000000000
0.049136400222778 0.058939151465893 0.000000000000000
0.037704803049564 0.076113805174828 0.000000000000000
0.021565563976765 0.091368772089481 0.000000000000000
0.002216272056103 0.096320651471615 0.000000000000000
-0.020309435203671 0.094641558825970 0.000000000000000
-0.038193918764591 0.085899412631989 0.000000000000000
-0.052556954324245 0.069034248590469 0.000000000000000
-0.062026970088482 0.048273906111717 0.000000000000000
-0.068485967814922 0.026075473055243 0.000000000000000
-0.070657536387444 0.004817707464099 0.000000000000000
-0.040856163948774 -0.004696084186435 0.000000000000000
-0.040522504597902 -0.012259203940630 0.000000000000000
-0.040358029305935 -0.019818115979433 0.000000000000000
-0.040837198495865 -0.029198376461864 0.000000000000000
-0.040876332670450 -0.039463769644499 0.000000000000000
-0.040225096046925 -0.050508715212345 0.000000000000000
-0.039769396185875 -0.060815751552582 0.000000000000000
-0.036570835858583 -0.071903899312019 0.000000000000000
-0.031625032424927 -0.082631297409534 0.000000000000000
-0.024517545476556 -0.092516690492630 0.000000000000000
-0.012692093849182 -0.102901645004749 0.000000000000000
0.002045687288046 -0.107200808823109 0.000000000000000
0.018739081919193 -0.103461444377899 0.000000000000000
0.037478148937225 -0.097912274301052 0.000000000000000
0.050719391554594 -0.085287325084209 0.000000000000000
0.061676733195782 -0.069311060011387 0.000000000000000
0.065568983554840 -0.052292995154858 0.000000000000000
0.069477535784245 -0.035789392888546 0.000000000000000
0.074887253344059 -0.018568446859717 0.000000000000000
0.080181829631329 -0.000033942982554 0.000000000000000
0.083023570477962 0.022286197170615 0.000000000000000
0.079037360846996 0.044658564031124 0.000000000000000
0.070674791932106 0.068346016108990 0.000000000000000
0.058226302266121 0.094478420913219 0.000000000000000
0.033025421202183 0.113209031522274 0.000000000000000
0.001035979017615 0.120192594826221 0.000000000000000
-0.028840297833085 0.119707994163036 0.000000000000000
-0.054323609918356 0.104368895292282 0.000000000000000
-0.074466370046139 0.081653319299221 0.000000000000000
-0.086619243025780 0.057166986167431 0.000000000000000
-0.090897977352142 0.030262624844909 0.000000000000000
-0.090908825397491 0.006818665191531 0.000000000000000
-0.048481643199921 -0.004344310611486 0.000000000000000
-0.049085523933172 -0.011696321889758 0.000000000000000
-0.049208015203476 -0.019661817699671 0.000000000000000
-0.050670947879553 -0.029575407505035 0.000000000000000
-0.051333017647266 -0.040264576673508 0.000000000000000
-0.051202464848757 -0.051386058330536 0.000000000000000
-0.051245674490929 -0.063838407397270 0.000000000000000
-0.048402644693851 -0.075610458850861 0.000000000000000
-0.044549196958542 -0.089425653219223 0.000000000000000
-0.036450259387493 -0.103786446154118 0.000000000000000
-0.022547999396920 -0.117454394698143 0.000000000000000
-0.002330685034394 -0.124393500387669 0.000000000000000
0.024849303066730 -0.123766750097275 0.000000000000000
0.050599806010723 -0.113934360444546 0.000000000000000
0.065115191042423 -0.096450701355934 0.000000000000000
0.076031647622585 -0.077294938266277 0.000000000000000
0.085644252598286 -0.062521383166313 0.000000000000000
0.088923126459122 -0.043103270232677 0.000000000000000
0.094643227756023 -0.023422198370099 0.000000000000000
0.100975103676319 -0.000093413516879 0.000000000000000
0.103350237011909 0.026555491611362 0.000000000000000
0.103097625076771 0.050154067575932 0.000000000000000
0.098391138017178 0.083806402981281 0.000000000000000
0.085506655275822 0.119240216910839 0.000000000000000
0.052217558026314 0.148791089653969 0.000000000000000
0.005546895787120 0.161767974495888 0.000000000000000
-0.041509512811899 0.155753940343857 0.000000000000000
-0.078032828867435 0.127510428428650 0.000000000000000
-0.102855391800404 0.096978709101677 0.000000000000000
-0.113645754754543 0.064725086092949 0.000000000000000
-0.118408799171448 0.033373318612576 0.000000000000000
-0.116079136729240 0.006316574290395 0.000000000000000
-0.055455107241869 -0.004014436155558 0.000000000000000
-0.056385137140751 -0.010734194889665 0.000000000000000
-0.056929200887680 -0.018023410812020 0.000000000000000
-0.059745252132416 -0.027246212586761 0.000000000000000
-0.061968050897121 -0.038250714540482 0.000000000000000
-0.062518119812012 -0.049586042761803 0.000000000000000
-0.063371643424034 -0.062068969011307 0.000000000000000
-0.062658146023750 -0.078521542251110 0.000000000000000
-0.060660600662231 -0.098127357661724 0.000000000000000
-0.054122112691402 -0.117428742349148 0.000000000000000
-0.037310011684895 -0.137730166316032 0.000000000000000
-0.007321497425437 -0.151524811983109 0.000000000000000
0.028903745114803 -0.148295029997826 0.000000000000000
0.061592355370522 -0.136035248637199 0.000000000000000
0.081740662455559 -0.109598986804485 0.000000000000000
0.095491468906403 -0.084209069609642 0.000000000000000
0.104671403765678 -0.065672375261784 0.000000000000000
0.110083356499672 -0.045058988034725 0.000000000000000
0.117356993257999 -0.028031760826707 0.000000000000000
0.122604809701443 -0.006746379658580 0.000000000000000
0.113118648529053 0.015131847932935 0.000000000000000
0.125845283269882 0.052383579313755 0.000000000000000
0.125882863998413 0.090737938880920 0.000000000000000
0.118320487439632 0.138848155736923 0.000000000000000
0.083301238715649 0.181689694523811 0.000000000000000
0.018249176442623 0.218221515417099 0.000000000000000
-0.061236336827278 0.208798497915268 0.000000000000000
-0.112503737211227 0.160546422004700 0.000000000000000
-0.137720108032227 0.110745944082737 0.000000000000000
-0.145956784486771 0.069332949817181 0.000000000000000
-0.145886570215225 0.035714454948902 0.000000000000000
-0.144020766019821 0.007391011342406 0.000000000000000
-0.060724396258593 -0.003121476620436 0.000000000000000
-0.062822461128235 -0.009545743465424 0.000000000000000
-0.064082652330399 -0.016696736216545 0.000000000000000
-0.066959857940674 -0.025121912360191 0.000000000000000
-0.071114853024483 -0.034777879714966 0.000000000000000
-0.073751956224442 -0.046347383409739 0.000000000000000
-0.079196393489838 -0.060914374887943 0.000000000000000
-0.083523295819759 -0.079883150756359 0.000000000000000
-0.083400361239910 -0.104132086038589 0.000000000000000
-0.076981171965599 -0.134757846593857 0.000000000000000
-0.061386376619339 -0.167895019054413 0.000000000000000
-0.019797017797828 -0.191477164626122 0.000000000000000
0.038026008754969 -0.188362762331963 0.000000000000000
0.080498620867729 -0.165797919034958 0.000000000000000
0.103069961071014 -0.126521900296211 0.000000000000000
0.119085572659969 -0.091824062168598 0.000000000000000
0.124551944434643 -0.066663846373558 0.000000000000000
0.124737910926342 -0.045741949230433 0.000000000000000
0.128732234239578 -0.026499891653657 0.000000000000000
0.134012311697006 -0.010001445189118 0.000000000000000
0.142023175954819 0.015406044200063 0.000000000000000
0.148490071296692 0.040127687156200 0.000000000000000
0.159487873315811 0.083995617926121 0.000000000000000
0.168510645627975 0.136949896812439 0.000000000000000
0.156475692987442 0.209940135478973 0.000000000000000
0.063056521117687 0.324194371700287 0.000000000000000
-0.136334985494614 0.300154864788055 0.000000000000000
-0.181342601776123 0.190421149134636 0.000000000000000
-0.186377942562103 0.117377303540707 0.000000000000000
-0.180001527070999 0.069990448653698 0.000000000000000
-0.173684984445572 0.034618139266968 0.000000000000000
-0.171930283308029 0.006446408107877 0.000000000000000
-0.067262277007103 -0.002689111977816 0.000000000000000
-0.069894783198833 -0.008495725691319 0.000000000000000
-0.071396417915821 -0.014923829585314 0.000000000000000
-0.075176268815994 -0.022105293348432 0.000000000000000
-0.080124631524086 -0.029791373759508 0.000000000000000
-0.087086185812950 -0.041335426270962 0.000000000000000
-0.095176056027412 -0.055572219192982 0.000000000000000
-0.104220815002918 -0.075838275253773 0.000000000000000
-0.111366927623749 -0.104576952755451 0.000000000000000
-0.108860552310944 -0.145262792706490 0.000000000000000
-0.091771967709064 -0.196892678737640 0.000000000000000
-0.029767774045467 -0.245015993714333 0.000000000000000
0.058433935046196 -0.236422047019005 0.000000000000000
0.115818642079830 -0.191698566079140 0.000000000000000
0.139804452657700 -0.144778758287430 0.000000000000000
0.145402759313583 -0.097256295382977 0.000000000000000
0.148828268051147 -0.071112990379333 0.000000000000000
0.157543510198593 -0.053891576826572 0.000000000000000
0.164140939712524 -0.031203249469399 0.000000000000000
0.162905871868134 -0.015305737033486 0.000000000000000
0.168941438198090 0.005525654181838 0.000000000000000
0.158360779285431 0.022502696141601 0.000000000000000
0.184141576290131 0.059191592037678 0.000000000000000
0.229631066322327 0.103694267570972 0.000000000000000
-0.780216574668884 0.344825088977814 0.000000000000000
-0.724680662155151 0.557542502880096 0.000000000000000
-0.341068744659424 0.343647211790085 0.000000000000000
-0.272794216871262 0.177156791090965 0.000000000000000
-0.241924971342087 0.104838453233242 0.000000000000000
-0.216969162225723 0.063082404434681 0.000000000000000
-0.202028036117554 0.031056175008416 0.000000000000000
-0.198898613452911 0.005343845114112 0.000000000000000
-0.073711678385735 -0.001711647957563 0.000000000000000
-0.076238781213760 -0.007371233776212 0.000000000000000
-0.077748946845531 -0.011850556358695 0.000000000000000
-0.082621380686760 -0.018113385885954 0.000000000000000
-0.090783849358559 -0.024737976491451 0.000000000000000
-0.100028552114964 -0.035210810601711 0.000000000000000
-0.111532486975193 -0.048464603722095 0.000000000000000
-0.124286659061909 -0.065726704895496 0.000000000000000
-0.141809582710266 -0.097877852618694 0.000000000000000
-0.156913131475449 -0.146307945251465 0.000000000000000
-0.160426437854767 -0.238162606954575 0.000000000000000
-0.071336679160595 -0.387087345123291 0.000000000000000
0.115580730140209 -0.334698110818863 0.000000000000000
0.178753763437271 -0.227598696947098 0.000000000000000
0.166677564382553 -0.203258872032166 0.000000000000000
0.152482986450195 -0.112228922545910 0.000000000000000
0.125190347433090 -0.093793921172619 0.000000000000000
-0.948971033096313 0.058964826166630 0.000000000000000
-0.966590106487274 0.107077069580555 0.000000000000000
-0.989980101585388 0.132787972688675 0.000000000000000
-1.004130125045776 0.156587719917297 0.000000000000000
-0.977820515632629 0.161786660552025 0.000000000000000
-0.930755078792572 0.201175063848495 0.000000000000000
-0.882834911346436 0.223573669791222 0.000000000000000
-0.807937622070312 0.278277993202209 0.000000000000000
-0.666015803813934 0.307967871427536 0.000000000000000
-0.482411384582520 0.188061937689781 0.000000000000000
-0.354664593935013 0.121508456766605 0.000000000000000
-0.291290551424026 0.071864582598209 0.000000000000000
-0.248344093561172 0.044228143990040 0.000000000000000
-0.224718362092972 0.021472545340657 0.000000000000000
-0.217753231525421 0.002735679969192 0.000000000000000
-0.079117663204670 -0.001211099326611 0.000000000000000
-0.080463670194149 -0.005015553906560 0.000000000000000
-0.083936594426632 -0.008360702544451 0.000000000000000
-0.090664394199848 -0.012582033872604 0.000000000000000
-0.099384643137455 -0.017442805692554 0.000000000000000
-0.109515525400639 -0.023503711447120 0.000000000000000
-0.125335291028023 -0.033370569348335 0.000000000000000
-0.144373148679733 -0.047400884330273 0.000000000000000
-0.174717426300049 -0.075421817600727 0.000000000000000
-0.216938078403473 -0.118057467043400 0.000000000000000
-0.293033063411713 -0.191203415393829 0.000000000000000
-0.567535221576691 -0.374793469905853 0.000000000000000
-0.867765426635742 -0.193539738655090 0.000000000000000
-0.922778487205505 -0.056960180401802 0.000000000000000
-0.954834282398224 0.020786913111806 0.000000000000000
-0.977018952369690 0.060853458940983 0.000000000000000
-1.009841322898865 0.091343857347965 0.000000000000000
-1.006037712097168 0.109858728945255 0.000000000000000
-1.010683894157410 0.127517640590668 0.000000000000000
-1.009648442268372 0.128615677356720 0.000000000000000
-1.001596689224243 0.123897351324558 0.000000000000000
-0.985622406005859 0.141407161951065 0.000000000000000
-0.938885807991028 0.136540383100510 0.000000000000000
-0.893117308616638 0.147244602441788 0.000000000000000
-0.828318476676941 0.142648085951805 0.000000000000000
-0.693388104438782 0.129699140787125 0.000000000000000
-0.531954526901245 0.056196637451649 0.000000000000000
-0.398768991231918 0.038264922797680 0.000000000000000
-0.317194640636444 0.021476550027728 0.000000000000000
-0.263531088829041 0.013333404436707 0.000000000000000
-0.237101733684540 0.006703229621053 0.000000000000000
-0.229816496372223 -0.000781984999776 0.000000000000000
-0.081108823418617 -0.000664111226797 0.000000000000000
-0.082707434892654 -0.003497183322906 0.000000000000000
-0.086247757077217 -0.003334384411573 0.000000000000000
-0.093786381185055 -0.005025096237659 0.000000000000000
-0.103265427052975 -0.006503701210022 0.000000000000000
-0.114605173468590 -0.009085316210985 0.000000000000000
-0.132713139057159 -0.013417663052678 0.000000000000000
-0.156990706920624 -0.021359791979194 0.000000000000000
-0.194713562726974 -0.034193135797977 0.000000000000000
-0.258341073989868 -0.054651103913784 0.000000000000000
-0.357461005449295 -0.066287942230701 0.000000000000000
-0.514263987541199 -0.106534831225872 0.000000000000000
-0.735312581062317 -0.047226734459400 0.000000000000000
-0.860143065452576 0.038786657154560 0.000000000000000
-0.918569207191467 0.078011833131313 0.000000000000000
-0.957410693168640 0.092707298696041 0.000000000000000
-0.981505751609802 0.107436828315258 0.000000000000000
-0.994196772575378 0.120763368904591 0.000000000000000
-1.008183956146240 0.126727104187012 0.000000000000000
-1.011030554771423 0.123106129467487 0.000000000000000
-1.009871125221252 0.108771450817585 0.000000000000000
-0.995216608047485 0.106547705829144 0.000000000000000
-0.964839458465576 0.099765509366989 0.000000000000000
-0.928359746932983 0.083542354404926 0.000000000000000
-0.860174655914307 0.041383422911167 0.000000000000000
-0.737480044364929 -0.033518556505442 0.000000000000000
-0.576371252536774 -0.061834752559662 0.000000000000000
-0.403029352426529 -0.051826573908329 0.000000000000000
-0.311809420585632 -0.038374677300453 0.000000000000000
-0.264734685420990 -0.021236369386315 0.000000000000000
-0.237710475921631 -0.008415101096034 0.000000000000000
-0.229681879281998 -0.002025464549661 0.000000000000000
-0.081413164734840 0.000334234908223 0.000000000000000
-0.083620779216290 -0.000741392374039 0.000000000000000
-0.086563527584076 0.001222157850862 0.000000000000000
-0.094141334295273 0.000985605642200 0.000000000000000
-0.104837030172348 0.002067629247904 0.000000000000000
-0.116012573242188 0.005475021898746 0.000000000000000
-0.133157521486282 0.008764032274485 0.000000000000000
-0.159216016530991 0.012006061151624 0.000000000000000
-0.197142004966736 0.010400352999568 0.000000000000000
-0.261866390705109 0.019298935309052 0.000000000000000
-0.351407289505005 0.035851590335369 0.000000000000000
-0.499535113573074 0.048900209367275 0.000000000000000
-0.678017735481262 0.114049829542637 0.000000000000000
-0.809684991836548 0.166022107005119 0.000000000000000
-0.893971681594849 0.172977402806282 0.000000000000000
-0.944720625877380 0.164901077747345 0.000000000000000
-0.982487678527832 0.154907360672951 0.000000000000000
-0.997646093368530 0.149723917245865 0.000000000000000
-1.008466958999634 0.144343823194504 0.000000000000000
-1.010164380073547 0.117407627403736 0.000000000000000
-1.008523225784302 0.091412819921970 0.000000000000000
-1.002051949501038 0.087360352277756 0.000000000000000
-0.979235649108887 0.070380456745625 0.000000000000000
-0.956572175025940 0.011456919834018 0.000000000000000
-0.917720794677734 -0.062291271984577 0.000000000000000
-0.842169582843781 -0.188025325536728 0.000000000000000
-0.628041148185730 -0.270855993032455 0.000000000000000
-0.346316099166870 -0.171610280871391 0.000000000000000
-0.270962953567505 -0.096710614860058 0.000000000000000
-0.240672379732132 -0.054872982203960 0.000000000000000
-0.224176794290543 -0.025346869602799 0.000000000000000
-0.216190248727798 -0.005612129345536 0.000000000000000
-0.080707587301731 0.001216769218445 0.000000000000000
-0.081880800426006 0.002944082021713 0.000000000000000
-0.084685944020748 0.005508201196790 0.000000000000000
-0.091675475239754 0.007096178829670 0.000000000000000
-0.101743742823601 0.012599084526300 0.000000000000000
-0.113161012530327 0.021874641999602 0.000000000000000
-0.129014566540718 0.032572455704212 0.000000000000000
-0.150071173906326 0.043720997869968 0.000000000000000
-0.186664223670959 0.058531984686852 0.000000000000000
-0.235011756420135 0.089964509010315 0.000000000000000
-0.307075381278992 0.125935271382332 0.000000000000000
-0.449995070695877 0.165990948677063 0.000000000000000
-0.626828551292419 0.304800242185593 0.000000000000000
-0.779697656631470 0.303333938121796 0.000000000000000
-0.867455363273621 0.274206131696701 0.000000000000000
-0.937976360321045 0.224505409598351 0.000000000000000
-0.989443898200989 0.190954223275185 0.000000000000000
-1.005484580993652 0.165020972490311 0.000000000000000
-1.010616660118103 0.160139262676239 0.000000000000000
-1.003212094306946 0.147988513112068 0.000000000000000
-0.964318394660950 0.087017320096493 0.000000000000000
-0.953721642494202 0.074539639055729 0.000000000000000
-0.336207866668701 -0.076943211257458 0.000000000000000
0.168866813182831 -0.164162337779999 0.000000000000000
0.181034982204437 -0.234597980976105 0.000000000000000
0.145970672369003 -0.377711474895477 0.000000000000000
-0.093172512948513 -0.423676103353500 0.000000000000000
-0.207242548465729 -0.224020883440971 0.000000000000000
-0.204869627952576 -0.127512916922569 0.000000000000000
-0.199243098497391 -0.077660918235779 0.000000000000000
-0.195841282606125 -0.037827588617802 0.000000000000000
-0.191783964633942 -0.006317282095551 0.000000000000000
-0.078143410384655 0.003604697063565 0.000000000000000
-0.079283997416496 0.005937173962593 0.000000000000000
-0.081000596284866 0.009535009041429 0.000000000000000
-0.086620338261127 0.013234049081802 0.000000000000000
-0.095550611615181 0.021071737632155 0.000000000000000
-0.103678844869137 0.033570908010006 0.000000000000000
-0.116893738508224 0.045881770551205 0.000000000000000
-0.131651639938354 0.064708106219769 0.000000000000000
-0.159590125083923 0.093010298907757 0.000000000000000
-0.191417217254639 0.135055169463158 0.000000000000000
-0.231933772563934 0.196267440915108 0.000000000000000
-0.327007889747620 0.325745373964310 0.000000000000000
-0.603847026824951 0.499593973159790 0.000000000000000
-0.803896427154541 0.362361848354340 0.000000000000000
-0.842975854873657 0.301615029573441 0.000000000000000
0.259920030832291 0.075677461922169 0.000000000000000
0.192209184169769 -0.000394040718675 0.000000000000000
0.182539939880371 0.009702390059829 0.000000000000000
0.155014812946320 -0.007364088669419 0.000000000000000
0.152022421360016 -0.032563172280788 0.000000000000000
0.154022037982941 -0.055249467492104 0.000000000000000
0.154230028390884 -0.077288821339607 0.000000000000000
0.152043610811234 -0.096977673470974 0.000000000000000
0.146477162837982 -0.138112366199493 0.000000000000000
0.125742346048355 -0.193480014801025 0.000000000000000
0.058699645102024 -0.252800792455673 0.000000000000000
-0.042462836951017 -0.256724447011948 0.000000000000000
-0.115781687200069 -0.189287990331650 0.000000000000000
-0.143949687480927 -0.125998854637146 0.000000000000000
-0.155957907438278 -0.081379041075706 0.000000000000000
-0.162864983081818 -0.040610145777464 0.000000000000000
-0.161328792572021 -0.007932676002383 0.000000000000000
-0.074339315295219 0.004322631284595 0.000000000000000
-0.074107699096203 0.008028626441956 0.000000000000000
-0.075354725122452 0.012010965496302 0.000000000000000
-0.080228783190250 0.017934245988727 0.000000000000000
-0.085344158113003 0.029505429789424 0.000000000000000
-0.090732559561729 0.043585851788521 0.000000000000000
-0.097841732203960 0.058579355478287 0.000000000000000
-0.108926661312580 0.079850494861603 0.000000000000000
-0.126779332756996 0.108137540519238 0.000000000000000
-0.142963081598282 0.147676467895508 0.000000000000000
-0.149557322263718 0.208767250180244 0.000000000000000
-0.104208268225193 0.323377430438995 0.000000000000000
0.093567647039890 0.369794070720673 0.000000000000000
0.159750491380692 0.241928339004517 0.000000000000000
0.184930324554443 0.165687873959541 0.000000000000000
0.175907701253891 0.110744826495647 0.000000000000000
0.158646166324615 0.068165265023708 0.000000000000000
0.149420410394669 0.043184816837311 0.000000000000000
0.143639445304871 0.012283099815249 0.000000000000000
0.138447970151901 -0.014148974791169 0.000000000000000
0.131983876228333 -0.037089373916388 0.000000000000000
0.124537907540798 -0.055928118526936 0.000000000000000
0.117958359420300 -0.083515226840973 0.000000000000000
0.108719177544117 -0.122883737087250 0.000000000000000
0.084580153226852 -0.154022425413132 0.000000000000000
0.034506633877754 -0.182355865836143 0.000000000000000
-0.024577170610428 -0.181387960910797 0.000000000000000
-0.073711849749088 -0.151232898235321 0.000000000000000
-0.104692526161671 -0.110343463718891 0.000000000000000
-0.122298106551170 -0.075534403324127 0.000000000000000
-0.133046150207520 -0.039045847952366 0.000000000000000
-0.132774710655212 -0.007683241739869 0.000000000000000
-0.067838788032532 0.005267551168799 0.000000000000000
-0.067827463150024 0.009974198415875 0.000000000000000
-0.067811295390129 0.015222614631057 0.000000000000000
-0.069766223430634 0.022768085822463 0.000000000000000
-0.073816090822220 0.035490714013577 0.000000000000000
-0.077925197780132 0.048546597361565 0.000000000000000
-0.080161184072495 0.065269850194454 0.000000000000000
-0.084044046700001 0.084677807986736 0.000000000000000
-0.093424484133720 0.112248308956623 0.000000000000000
-0.096982739865780 0.144994586706161 0.000000000000000
-0.086727447807789 0.194947987794876 0.000000000000000
-0.046408228576183 0.247325807809830 0.000000000000000
0.029605597257614 0.252220720052719 0.000000000000000
0.093542031943798 0.216174155473709 0.000000000000000
0.118883721530437 0.162552103400230 0.000000000000000
0.123159952461720 0.114365421235561 0.000000000000000
0.121558807790279 0.071890674531460 0.000000000000000
0.118788190186024 0.045316167175770 0.000000000000000
0.119285874068737 0.017041249200702 0.000000000000000
0.111848302185535 -0.005668228492141 0.000000000000000
0.107309617102146 -0.028186352923512 0.000000000000000
0.105452522635460 -0.047901704907417 0.000000000000000
0.097422219812870 -0.072186380624771 0.000000000000000
0.081637382507324 -0.103652387857437 0.000000000000000
0.059438869357109 -0.121820628643036 0.000000000000000
0.026320531964302 -0.135271310806274 0.000000000000000
-0.010465566068888 -0.133983299136162 0.000000000000000
-0.048000708222389 -0.115884281694889 0.000000000000000