# vtk DataFile Version 2.0
material
ASCII
DATASET UNSTRUCTURED_GRID
POINTS 152 float
46.000000000000000 69.000000000000000 0.000000000000000
160.000000000000000 84.000000000000000 0.000000000000000
156.000000000000000 122.000000000000000 0.000000000000000
42.000000000000000 107.000000000000000 0.000000000000000
99.000000000000000 167.000000000000000 0.000000000000000
210.000000000000000 170.000000000000000 0.000000000000000
209.000000000000000 208.000000000000000 0.000000000000000
98.000000000000000 205.000000000000000 0.000000000000000
0.000000000000000 0.000000000000000 0.000000000000000
256.000000000000000 0.000000000000000 0.000000000000000
256.000000000000000 256.000000000000000 0.000000000000000
0.000000000000000 256.000000000000000 0.000000000000000
74.499999999916199 72.749999999988972 0.000000000000000
102.999999999944293 76.499999999992667 0.000000000000000
131.499999999972090 80.249999999996334 0.000000000000000
158.000000000000000 103.000000000000000 0.000000000000000
127.499999999999901 118.250000000000000 0.000000000000000
98.999999999999801 114.500000000000000 0.000000000000000
70.499999999999901 110.750000000000000 0.000000000000000
44.000000000000000 88.000000000000000 0.000000000000000
126.749999999907004 167.749999999997499 0.000000000000000
154.499999999481190 168.499999999985988 0.000000000000000
182.249999999737810 169.249999999992895 0.000000000000000
209.500000000000000 189.000000000000000 0.000000000000000
181.250000000259291 207.250000000006992 0.000000000000000
153.500000000513097 206.500000000013898 0.000000000000000
125.750000000095497 205.750000000002586 0.000000000000000
98.500000000000000 186.000000000000000 0.000000000000000
28.444444444392651 0.000000000000000 0.000000000000000
56.888888888759148 0.000000000000000 0.000000000000000
85.333333333120635 0.000000000000000 0.000000000000000
113.777777777482100 0.000000000000000 0.000000000000000
142.222222221922607 0.000000000000000 0.000000000000000
170.666666666441898 0.000000000000000 0.000000000000000
199.111111110961190 0.000000000000000 0.000000000000000
227.555555555480510 0.000000000000000 0.000000000000000
256.000000000000000 28.444444444392651 0.000000000000000
256.000000000000000 56.888888888759148 0.000000000000000
256.000000000000000 85.333333333120635 0.000000000000000
256.000000000000000 113.777777777482100 0.000000000000000
256.000000000000000 142.222222221922607 0.000000000000000
256.000000000000000 170.666666666441898 0.000000000000000
256.000000000000000 199.111111110961190 0.000000000000000
256.000000000000000 227.555555555480510 0.000000000000000
227.555555555437110 256.000000000000000 0.000000000000000
199.111111111150507 256.000000000000000 0.000000000000000
170.666666666903410 256.000000000000000 0.000000000000000
142.222222222656313 256.000000000000000 0.000000000000000
113.777777778251306 256.000000000000000 0.000000000000000
85.333333333688557 256.000000000000000 0.000000000000000
56.888888889125781 256.000000000000000 0.000000000000000
28.444444444563000 256.000000000000000 0.000000000000000
0.000000000000000 227.555555555437110 0.000000000000000
0.000000000000000 199.111111111150507 0.000000000000000
0.000000000000000 170.666666666903410 0.000000000000000
0.000000000000000 142.222222222656313 0.000000000000000
0.000000000000000 113.777777778251306 0.000000000000000
0.000000000000000 85.333333333688557 0.000000000000000
0.000000000000000 56.888888889125781 0.000000000000000
0.000000000000000 28.444444444563000 0.000000000000000
87.422030856932153 93.677882947339839 0.000000000000000
115.192658651652195 97.583440675569634 0.000000000000000
63.139680364636583 90.649733739117011 0.000000000000000
138.897655003943299 100.366138686963296 0.000000000000000
136.158899380593112 187.013580058834009 0.000000000000000
171.272623761648902 187.969043267618900 0.000000000000000
194.305724604739993 181.803349972334701 0.000000000000000
113.613064415544500 193.194167645729010 0.000000000000000
113.415117408607898 178.077274550835114 0.000000000000000
194.537529250533311 196.921277996143090 0.000000000000000
173.569792594199498 114.498409484916294 0.000000000000000
82.145965813318867 175.845020640731690 0.000000000000000
235.454766656422009 71.666211975194003 0.000000000000000
182.850618646049014 24.688988943337300 0.000000000000000
53.586408990052583 128.435008008139192 0.000000000000000
231.994885367241096 124.902420425913604 0.000000000000000
23.328399285220719 185.873067646748694 0.000000000000000
146.129243293233486 60.197938570766979 0.000000000000000
197.430882432544706 150.719961229997494 0.000000000000000
80.325035618090652 156.323658871790713 0.000000000000000
63.392764675965822 167.124626917493003 0.000000000000000
65.044884600513441 189.890775636146486 0.000000000000000
62.953008163410232 50.332137957758263 0.000000000000000
42.865304109310692 228.103791528265589 0.000000000000000
99.654335765057681 24.951216734609321 0.000000000000000
171.847552963972902 63.438257797613034 0.000000000000000
182.505510803260790 83.429503352490372 0.000000000000000
39.083383008148637 45.770633603994050 0.000000000000000
192.062946193852696 63.063450651724807 0.000000000000000
32.799621169733932 125.921674063124101 0.000000000000000
39.461534276453378 144.113949157875396 0.000000000000000
171.690799279076998 133.176651016247803 0.000000000000000
202.445982484386406 84.769347127445457 0.000000000000000
100.310635460323098 146.347605552565113 0.000000000000000
190.880842480955209 128.972082366757206 0.000000000000000
228.022843286527404 179.283073054562493 0.000000000000000
231.181582031711912 159.993286885300904 0.000000000000000
26.178582090760241 79.590874139887759 0.000000000000000
140.825562510228792 144.205672311070288 0.000000000000000
111.327886814707597 225.618187857585497 0.000000000000000
88.661746759574299 225.653139059307591 0.000000000000000
235.413614945078507 99.303913430125547 0.000000000000000
76.668907198327119 208.250228836739808 0.000000000000000
162.078448279547814 41.182385835609317 0.000000000000000
138.944114179116895 38.749566693475899 0.000000000000000
192.618162153829701 229.492695237075907 0.000000000000000
216.446083004503294 232.054873279423305 0.000000000000000
234.265669602389693 212.901750213366711 0.000000000000000
77.162478228921216 134.022479993964311 0.000000000000000
212.866222914636097 27.049336036071150 0.000000000000000
212.271423911250707 109.133794197964704 0.000000000000000
22.807942995793450 103.446496360168197 0.000000000000000
234.997656309941107 43.729551703494309 0.000000000000000
71.909304676579254 24.172774215364829 0.000000000000000
22.041351400990781 212.420227763931990 0.000000000000000
137.026500281794512 229.104021285783887 0.000000000000000
88.929604149040756 50.521331633451148 0.000000000000000
190.015678347965689 103.607594428092995 0.000000000000000
44.525252393349469 177.097372798955803 0.000000000000000
42.749948798829607 200.747124416157902 0.000000000000000
164.780735193165697 230.187467552328712 0.000000000000000
68.185446882269829 230.850778424535292 0.000000000000000
23.606273630490499 160.654648170752807 0.000000000000000
211.597285439580787 134.761008351232903 0.000000000000000
46.966295706991403 25.321773007595471 0.000000000000000
118.524001844774403 50.293867854362389 0.000000000000000
198.139883628514497 43.078352357392554 0.000000000000000
59.252789305061292 147.778607531290902 0.000000000000000
119.968170323188900 138.990214207889892 0.000000000000000
22.518745060658460 31.655092268455672 0.000000000000000
21.785417221076440 140.074403551471192 0.000000000000000
153.045464253355590 20.917993803444489 0.000000000000000
160.235204738796313 149.743819658548091 0.000000000000000
180.497545786222190 146.372502854308692 0.000000000000000
21.649592043865351 58.446554420650862 0.000000000000000
213.937385704744287 59.947376909497898 0.000000000000000
234.562662942247812 21.301436354249319 0.000000000000000
172.818196349085213 97.707101453099938 0.000000000000000
83.852239260656859 192.885941629637699 0.000000000000000
124.665785499791696 21.702541501001701 0.000000000000000
237.245237640770711 237.245237640785490 0.000000000000000
213.667094047879914 152.869352379591703 0.000000000000000
20.822778526490271 235.177221473509690 0.000000000000000
100.019772611045695 241.819719283362502 0.000000000000000
180.623232636229488 46.517965413264008 0.000000000000000
224.333740750305196 196.407638625126197 0.000000000000000
59.102898317850133 211.568539768368993 0.000000000000000
46.047722856264087 159.353840915273594 0.000000000000000
239.724450727844413 191.674047934091703 0.000000000000000
15.478596277320770 125.088514795134202 0.000000000000000
221.594241745457111 86.275388515163115 0.000000000000000
228.888169377282793 142.949658052792302 0.000000000000000
CELLS 266 1064
3 19 0 62
3 15 2 63
3 1 15 63
3 3 19 62
3 0 12 62
3 2 16 63
3 14 1 63
3 18 3 62
3 17 60 61
3 60 13 61
3 17 18 60
3 13 14 61
3 12 13 60
3 16 17 61
3 12 60 62
3 16 61 63
3 61 14 63
3 60 18 62
3 4 20 68
3 6 24 69
3 22 5 66
3 26 7 67
3 65 66 69
3 64 67 68
3 24 65 69
3 20 64 68
3 65 22 66
3 64 26 67
3 25 26 64
3 25 64 65
3 24 25 65
3 21 22 65
3 64 21 65
3 20 21 64
3 5 23 66
3 7 27 67
3 27 4 68
3 23 6 69
3 67 27 68
3 66 23 69
3 8 28 129
3 59 8 129
3 16 2 98
3 3 89 111
3 97 57 134
3 17 93 108
3 93 17 128
3 20 93 128
3 3 18 74
3 100 49 121
3 2 91 132
3 94 78 133
3 45 46 105
3 113 82 124
3 40 96 151
3 5 22 78
3 105 46 120
3 40 41 96
3 82 87 124
3 98 2 132
3 48 99 115
3 91 94 133
3 41 95 96
3 19 3 111
3 49 50 121
3 47 115 120
3 44 45 106
3 110 92 150
3 3 74 89
3 126 109 135
3 92 110 117
3 46 47 120
3 57 58 134
3 92 135 150
3 45 105 106
3 108 79 127
3 83 119 146
3 47 48 115
3 78 94 123
3 92 88 135
3 125 84 139
3 131 104 139
3 111 89 149
3 32 131 139
3 83 114 119
3 72 101 150
3 97 19 111
3 72 38 101
3 93 79 108
3 109 112 135
3 77 14 125
3 22 132 133
3 42 43 107
3 7 26 99
3 12 0 82
3 5 78 141
3 58 129 134
3 104 77 125
3 75 40 151
3 95 41 148
3 1 85 86
3 79 80 127
3 1 77 85
3 82 113 116
3 98 20 128
3 24 6 105
3 0 97 134
3 57 97 111
3 1 14 77
3 58 59 129
3 116 84 125
3 39 75 101
3 113 84 116
3 104 125 139
3 17 16 128
3 39 40 75
3 7 99 100
3 118 122 147
3 21 20 98
3 94 110 123
3 101 110 150
3 87 0 134
3 49 100 143
3 105 6 106
3 101 75 110
3 33 34 73
3 86 92 117
3 37 38 72
3 53 54 76
3 73 34 109
3 135 72 150
3 74 108 127
3 37 72 112
3 38 39 101
3 50 83 121
3 16 98 128
3 99 48 143
3 118 76 122
3 28 124 129
3 73 103 131
3 7 100 102
3 18 17 108
3 82 0 87
3 50 51 83
3 115 25 120
3 34 35 109
3 29 113 124
3 110 94 117
3 53 76 114
3 30 31 84
3 107 43 140
3 36 37 112
3 22 21 132
3 14 13 125
3 29 30 113
3 106 6 107
3 74 18 108
3 33 73 131
3 30 84 113
3 54 55 122
3 52 53 114
3 13 12 116
3 81 102 146
3 4 71 79
3 122 90 147
3 2 70 91
3 86 117 137
3 114 76 119
3 26 25 115
3 89 74 90
3 9 36 136
3 2 15 70
3 4 27 71
3 35 9 136
3 91 70 94
3 25 24 120
3 24 105 120
3 76 54 122
3 103 104 131
3 86 85 88
3 86 88 92
3 79 71 80
3 42 107 148
3 56 57 111
3 31 32 139
3 94 70 117
3 11 52 142
3 51 11 142
3 73 109 126
3 80 71 81
3 122 55 130
3 102 81 138
3 85 77 103
3 4 79 93
3 110 75 123
3 12 82 116
3 103 77 104
3 80 81 118
3 28 29 124
3 13 116 125
3 99 26 115
3 76 118 119
3 118 81 119
3 90 74 127
3 106 107 140
3 23 5 95
3 21 98 132
3 103 73 144
3 0 19 97
3 44 106 140
3 119 81 146
3 1 86 137
3 102 100 121
3 15 1 137
3 27 7 138
3 78 22 133
3 95 5 96
3 7 102 138
3 10 44 140
3 43 10 140
3 112 72 135
3 88 85 144
3 6 23 145
3 88 126 135
3 41 42 148
3 56 111 149
3 109 35 136
3 32 33 131
3 78 123 141
3 117 70 137
3 52 114 142
3 36 112 136
3 81 71 138
3 112 109 136
3 121 83 146
3 55 56 149
3 126 88 144
3 107 6 145
3 48 49 143
3 83 51 142
3 84 31 139
3 124 87 129
3 114 83 142
3 90 122 130
3 107 145 148
3 129 87 134
3 85 103 144
3 70 15 137
3 89 90 130
3 71 27 138
3 132 91 133
3 73 126 144
3 96 5 141
3 80 118 147
3 100 99 143
3 127 80 147
3 102 121 146
3 23 95 145
3 90 127 147
3 130 55 149
3 123 75 151
3 141 123 151
3 89 130 149
3 145 95 148
3 96 141 151
3 20 4 93
CELL_TYPES 266
5
5
5
5
5
5
5
5
5
5
5
5
5
5
5
5
5
5
5
5
5
5
5
5
5
5
5
5
5
5
5
5
5
5
5
5
5
5
5
5
5
5
5
5
5
5
5
5
5
5
5
5
5
5
5
5
5
5
5
5
5
5
5
5
5
5
5
5
5
5
5
5
5
5
5
5
5
5
5
5
5
5
5
5
5
5
5
5
5
5
5
5
5
5
5
5
5
5
5
5
5
5
5
5
5
5
5
5
5
5
5
5
5
5
5
5
5
5
5
5
5
5
5
5
5
5
5
5
5
5
5
5
5
5
5
5
5
5
5
5
5
5
5
5
5
5
5
5
5
5
5
5
5
5
5
5
5
5
5
5
5
5
5
5
5
5
5
5
5
5
5
5
5
5
5
5
5
5
5
5
5
5
5
5
5
5
5
5
5
5
5
5
5
5
5
5
5
5
5
5
5
5
5
5
5
5
5
5
5
5
5
5
5
5
5
5
5
5
5
5
5
5
5
5
5
5
5
5
5
5
5
5
5
5
5
5
5
5
5
5
5
5
5
5
5
5
5
5
5
5
5
5
5
5
5
5
5
5
5
5
5
5
5
5
5
5
CELL_DATA 266
VECTORS cell_data float
0.633133393542316 0.077938647147109 0.000000000000000
0.608241879207756 0.078263909288533 0.000000000000000
0.617296252249638 0.079512340456211 0.000000000000000
0.632027291573664 0.077785516287586 0.000000000000000
0.842852613355228 0.342842377691165 0.000000000000000
0.825358066047747 0.352908203740246 0.000000000000000
0.888513334208592 -0.130832831061133 0.000000000000000
0.903652973966175 -0.132300547163067 0.000000000000000
1.041936678608881 0.127543468225046 0.000000000000000
1.040900076267673 0.127397684330108 0.000000000000000
1.022157205212650 0.091971555292228 0.000000000000000
1.015158352114459 0.082885315898033 0.000000000000000
1.011754512550901 0.159536602912176 0.000000000000000
1.003542735027049 0.167653831709705 0.000000000000000
0.985833584288554 0.117556347752316 0.000000000000000
0.974502185577312 0.118888771813345 0.000000000000000
0.980611506405679 0.119605936864435 0.000000000000000
0.995591202699441 0.118773179066666 0.000000000000000
-0.090590797724495 0.018453304572089 0.000000000000000
0.038780357784437 0.054698694910076 0.000000000000000
0.033847554847477 0.079787908712372 0.000000000000000
-0.079913426149435 0.050577996290672 0.000000000000000
0.034237652242826 0.079664844063283 0.000000000000000
-0.088211883465814 0.054480473065216 0.000000000000000
0.015792922023651 0.072567391872673 0.000000000000000
-0.120651991382810 0.041734364462177 0.000000000000000
0.033833314508609 0.079773080573593 0.000000000000000
-0.078669712050003 0.051864636202398 0.000000000000000
-0.071672835429917 0.039269988695661 0.000000000000000
-0.036024047235847 0.079328994889645 0.000000000000000
-0.000094190339505 0.041866061307309 0.000000000000000
0.001007505972548 0.135748909128076 0.000000000000000
-0.047876212409632 0.079006491140252 0.000000000000000
-0.084426881559304 0.115900882244025 0.000000000000000
0.033342302113574 0.080167899167018 0.000000000000000
-0.070240640672614 0.043263911066988 0.000000000000000
-0.077312362017950 0.028657097837008 0.000000000000000
0.056922958407222 0.068596515843212 0.000000000000000
-0.088472400970329 0.034585172165853 0.000000000000000
0.034251972023232 0.080598757224422 0.000000000000000
0.023745273113297 0.024796721063540 0.000000000000000
0.024851659154734 0.026351992111366 0.000000000000000
-0.103535947109725 0.230685307272158 0.000000000000000
0.106319414126830 -0.305003521053854 0.000000000000000
0.229625966667657 0.048686105777264 0.000000000000000
-0.135721761160814 -0.053079476269004 0.000000000000000
-0.132076028184794 0.035509509215705 0.000000000000000
-0.071175113499264 0.012715610300304 0.000000000000000
-0.029851670077986 -0.255130105589930 0.000000000000000
-0.006659216092273 0.015402222495762 0.000000000000000
-0.036976739467731 0.271048922721154 0.000000000000000
0.094203192855996 0.121650124066747 0.000000000000000
0.003925618411113 0.036059831400767 0.000000000000000
-0.049898617613010 0.066306655494556 0.000000000000000
0.060474352872990 0.011222598286900 0.000000000000000
0.033608090699382 0.079781436708373 0.000000000000000
0.000790556501819 0.039845543473541 0.000000000000000
0.060333180249467 0.011323684013820 0.000000000000000
-0.008040389025338 0.131791637225411 0.000000000000000
-0.054166859131314 0.158440534397777 0.000000000000000
-0.003809932431879 0.038770298190687 0.000000000000000
0.063096143728558 0.173779592274933 0.000000000000000
0.047970487679420 0.006006998917848 0.000000000000000
0.661500402095932 -0.202209033673936 0.000000000000000
-0.006861461832978 0.015105607343796 0.000000000000000
-0.000845452452280 0.039581136812576 0.000000000000000
0.008000513232930 0.026003217636840 0.000000000000000
0.128110222531259 -0.030664840426936 0.000000000000000
0.029068295002335 -0.146127400401441 0.000000000000000
0.050187190498980 -0.073169179592159 0.000000000000000
0.146141043198273 0.014046736050261 0.000000000000000
0.000404205979619 0.038151217701149 0.000000000000000
0.227072238080553 0.051857599068511 0.000000000000000
0.094274994100035 -0.033326035561468 0.000000000000000
0.003115213853132 0.032751374682429 0.000000000000000
-0.084905808421431 -0.069438097987584 0.000000000000000
-0.008200665496036 -0.000862680596394 0.000000000000000
-0.001514975538755 0.036115308793394 0.000000000000000
0.077381072735131 0.065796200531107 0.000000000000000
0.112804156904798 -0.073349896745670 0.000000000000000
-0.067169679224222 -0.026637560439895 0.000000000000000
-0.038134769414473 -0.067431284137636 0.000000000000000
0.194117356788009 -0.107511735498705 0.000000000000000
-0.005152510496320 -0.068343068781824 0.000000000000000
-0.008212608940113 -0.003695084431237 0.000000000000000
0.091640879861143 -0.019753105373380 0.000000000000000
0.355934526712446 0.020512251992940 0.000000000000000
0.091615458279950 -0.002679840408426 0.000000000000000
-0.078246180567070 -0.022476878390915 0.000000000000000
0.051547286795652 -0.031397280892061 0.000000000000000
-0.153044734773464 -0.128257707869715 0.000000000000000
0.019829581225641 0.154148048640423 0.000000000000000
0.026710828058699 0.008316482653539 0.000000000000000
-0.012955190655783 0.052387678331041 0.000000000000000
-0.098459065292371 0.218985577869113 0.000000000000000
0.024641015536938 0.066026647968619 0.000000000000000
0.099588196889634 0.042685255479761 0.000000000000000
-0.047640297344052 -0.090441230007246 0.000000000000000
0.083973934268982 0.010592082488990 0.000000000000000
0.041649576361502 0.007953713561377 0.000000000000000
0.055873988436762 -0.281699489359680 0.000000000000000
-0.037074155913719 -0.050041783028669 0.000000000000000
-0.009333485801358 -0.168530189418152 0.000000000000000
-0.050652438389789 0.068508399470691 0.000000000000000
-0.045216712329758 0.122797710961652 0.000000000000000
0.008870274915112 0.053890314291987 0.000000000000000
0.289364958771825 0.327587215224726 0.000000000000000
0.355866407775943 0.020994362230633 0.000000000000000
-0.060103422194984 -0.255650825324759 0.000000000000000
0.104082989952188 0.037648531910708 0.000000000000000
-0.063717058642608 -0.022000564825925 0.000000000000000
0.097561978662835 0.002849408124900 0.000000000000000
-0.081590646337093 0.020613992569615 0.000000000000000
-0.054268814460117 -0.086693865811348 0.000000000000000
-0.148748482837755 0.016036566201178 0.000000000000000
0.082753954474007 0.009711861395804 0.000000000000000
-0.026435806180099 0.031533219767551 0.000000000000000
-0.008224059300919 -0.044175813367866 0.000000000000000
-0.041782595227098 0.117053430523276 0.000000000000000
0.111643697534685 0.075370421327342 0.000000000000000
0.114767453605879 0.002049992196867 0.000000000000000
0.004464751110886 0.204111713602278 0.000000000000000
-0.008144043021487 0.028940155010817 0.000000000000000
0.023326027123839 0.034924610958675 0.000000000000000
0.096640441533298 0.009749624746360 0.000000000000000
0.009580777473205 -0.069183991638668 0.000000000000000
0.205111803646832 -0.075324027258917 0.000000000000000
0.076407183936368 -0.012796704384729 0.000000000000000
0.012098659111784 -0.009559237477253 0.000000000000000
0.007260840341588 -0.065661533612546 0.000000000000000
0.096678229437840 -0.025062538438306 0.000000000000000
-0.039177323579467 -0.104561369656291 0.000000000000000
0.066026132989185 -0.005330050623349 0.000000000000000
0.090639587224881 -0.002017583061990 0.000000000000000
-0.003127139058163 0.006791985534824 0.000000000000000
-0.175672583463474 0.090176800154087 0.000000000000000
-0.004597753443561 0.029000300123453 0.000000000000000
0.012916169848000 -0.027559181628178 0.000000000000000
0.015475062469867 0.068976194918719 0.000000000000000
-0.003993177856150 -0.085148006683626 0.000000000000000
-0.021219627740312 0.019996751875601 0.000000000000000
-0.128602318766891 -0.059444171547186 0.000000000000000
-0.017613497500089 0.129962208581157 0.000000000000000
-0.003927068065275 0.005200738596516 0.000000000000000
-0.000884650474465 0.039579606633455 0.000000000000000
0.016464308892041 -0.047562973813701 0.000000000000000
-0.003277618587118 0.064159060886438 0.000000000000000
0.171086943169630 0.020240913023077 0.000000000000000
0.000346052893553 -0.002890048132766 0.000000000000000
-0.028217391379414 -0.005281088697072 0.000000000000000
0.019289122720980 0.003312591420827 0.000000000000000
0.049222336096982 -0.015858724592334 0.000000000000000
-0.000996942363233 0.135694734848734 0.000000000000000
-0.126663449157111 -0.067354394795595 0.000000000000000
-0.020208210859082 0.036912186358874 0.000000000000000
0.019755855867824 0.023391027852315 0.000000000000000
-0.148967583950251 -0.130581398606953 0.000000000000000
0.002081893183392 -0.084379379114623 0.000000000000000
-0.012237818050464 0.022559825327777 0.000000000000000
0.045140649172088 -0.022911722269688 0.000000000000000
0.000992722051340 -0.002499573197715 0.000000000000000
-0.137925446541354 0.008262924084248 0.000000000000000
-0.025419187370563 0.004906530379115 0.000000000000000
-0.057311201281515 -0.030103816027704 0.000000000000000
0.010954035400720 -0.045287461928669 0.000000000000000
0.173081399210851 0.420674602546376 0.000000000000000
0.219465781392422 -0.036758193870560 0.000000000000000
0.000626643880068 -0.008677629106032 0.000000000000000
-0.002030740336450 0.041152207481972 0.000000000000000
0.019772687977070 -0.147251333780570 0.000000000000000
0.015517542168638 -0.015542495821550 0.000000000000000
0.590980325405118 0.242248670413419 0.000000000000000
-0.076024462857484 -0.020283070260756 0.000000000000000
0.015467413044785 -0.015492684488250 0.000000000000000
0.200957156529918 0.143574027529006 0.000000000000000
0.000208124035374 0.041874231966091 0.000000000000000
0.001680688109682 0.039823327382989 0.000000000000000
0.012713418287054 -0.009158512403453 0.000000000000000
-0.011250020047220 -0.101427842300404 0.000000000000000
0.133895684628261 -0.135353359013525 0.000000000000000
0.108763041370313 -0.081797910696840 0.000000000000000
-0.057930028392658 -0.036737979127809 0.000000000000000
0.035419863376380 0.002790517013048 0.000000000000000
0.250948709337175 -0.062327109439782 0.000000000000000
-0.020125734553785 -0.049833788017505 0.000000000000000
0.174540376706788 0.121487104306393 0.000000000000000
-0.000594093085757 0.000212242638529 0.000000000000000
-0.001416866449980 0.001035016002752 0.000000000000000
0.040862116359542 -0.063019218853481 0.000000000000000
-0.032019689224607 -0.024689456990540 0.000000000000000
0.044201799793411 -0.023644801616296 0.000000000000000
-0.032116482110635 -0.005671448828707 0.000000000000000
-0.001041813800255 -0.167485499290695 0.000000000000000
-0.059947422299052 -0.031610924383951 0.000000000000000
0.113025301177930 0.022849086426050 0.000000000000000
-0.176438727531956 0.067592268257512 0.000000000000000
-0.052783948137005 -0.105795572742359 0.000000000000000
-0.032231928884503 -0.027614111302499 0.000000000000000
0.002034933295843 0.050601795118596 0.000000000000000
-0.153940968945467 -0.021307100075851 0.000000000000000
-0.003136756569414 0.038861609689942 0.000000000000000
-0.011064187315789 -0.017631090145117 0.000000000000000
-0.011294697182313 -0.014560347143500 0.000000000000000
-0.034149235182797 -0.087396738462270 0.000000000000000
0.021515207402681 0.021500014484610 0.000000000000000
0.035129351237135 0.012260032471686 0.000000000000000
-0.011660629627106 0.170568824008064 0.000000000000000
0.023915670320030 -0.107308026636006 0.000000000000000
0.625775556214879 0.147838101757775 0.000000000000000
0.003868065288573 0.017096225046493 0.000000000000000
-0.021436935455639 -0.009621661646281 0.000000000000000
0.391429172022829 -0.290205544119503 0.000000000000000
-0.021746659574799 0.019231971553712 0.000000000000000
0.629424491529997 -0.035705932707281 0.000000000000000
-0.069201554070117 0.003778620172085 0.000000000000000
0.015798220792714 0.101520461519337 0.000000000000000
0.046027358929779 0.017873297812323 0.000000000000000
-0.045873554834385 0.023753282566507 0.000000000000000
0.008336749861416 0.008446909570105 0.000000000000000
0.008682409427441 0.008792569136130 0.000000000000000
0.065424753011362 -0.042083863491482 0.000000000000000
0.039469927163785 -0.133602641218865 0.000000000000000
0.058329359422745 0.015153277253448 0.000000000000000
0.057408024797621 -0.065458566200073 0.000000000000000
0.042975075646735 0.006242848484614 0.000000000000000
0.165744347946722 -0.023732211349446 0.000000000000000
0.009273583324635 -0.034321776478764 0.000000000000000
-0.007539984931685 -0.072957321636910 0.000000000000000
0.071652096117884 0.072250094849424 0.000000000000000
0.347280115268338 0.007095178337495 0.000000000000000
-0.002135061241374 -0.000351790852850 0.000000000000000
0.038339239378173 -0.007938213285927 0.000000000000000
-0.051429818346957 -0.008747194937673 0.000000000000000
0.037681564350575 -0.041847721974542 0.000000000000000
-0.014505335683977 0.005557562912703 0.000000000000000
0.129968886531158 -0.049874558399481 0.000000000000000
0.066320348970416 -0.094768342142202 0.000000000000000
0.041780795183188 0.027664049414281 0.000000000000000
-0.006343151691899 0.027201330227529 0.000000000000000
-0.001564750343328 0.000630989692504 0.000000000000000
-0.012078308926965 -0.033793242024464 0.000000000000000
0.016252194287818 0.068774873159249 0.000000000000000
-0.002198577581878 0.000834384378490 0.000000000000000
0.039639273657266 -0.075212790985621 0.000000000000000
0.032841255753992 0.012818014662267 0.000000000000000
0.096522739500301 0.137177346099787 0.000000000000000
0.025583408712911 -0.106828196256812 0.000000000000000
0.349834422270524 0.064160598714587 0.000000000000000
0.046747696154001 -0.073588294113646 0.000000000000000
-0.051030931490589 -0.004763425856885 0.000000000000000
0.046979509554778 0.149630751779426 0.000000000000000
0.021742973424757 -0.086015018062680 0.000000000000000
0.033702619511229 0.023695815289547 0.000000000000000
-0.008572071054036 -0.040119933278414 0.000000000000000
-0.006344020571325 0.031502238221948 0.000000000000000
-0.037748107826676 -0.053191146395673 0.000000000000000
-0.015678704598843 0.003066502249751 0.000000000000000
0.043618201166767 0.007806853586507 0.000000000000000
-0.004903950144243 -0.081981519541360 0.000000000000000
0.112341881245903 -0.030362714691569 0.000000000000000
0.079036043121969 0.039276807836876 0.000000000000000
0.067244939113165 0.033692754374334 0.000000000000000
0.077513207185103 -0.113120516072094 0.000000000000000
0.043226774834191 0.009623828265971 0.000000000000000
0.063800063207544 0.035937807055434 0.000000000000000
-0.063171610771562 0.019194363678924 0.000000000000000
